LAMMPS (15 May 2015)
Running on 9 partitions of processors
Step MaxReplicaForce MaxAtomForce GradV0 GradV1 GradVc EBF EBR RDT RD1 PE1 RD2 PE2 ... RDN PEN
0  3.4362943926273e+00  2.1522321338880e-01  1.0112282360290e-02  6.6546138627350e-02  3.1327964403742e+00  2.7896615727805e+00  5.7097984469001e+00  1.9715082482154e+01  0.0000000000000e+00 -1.2988727668341e+05  1.2500000000000e-01 -1.2988661765814e+05  2.5000000000000e-01 -1.2988535190692e+05  3.7500000000000e-01 -1.2988448702183e+05  5.0000000000000e-01 -1.2988464706990e+05  6.2500000000000e-01 -1.2988586732334e+05  7.5000000000000e-01 -1.2988770023834e+05  8.7500000000000e-01 -1.2988942397716e+05  1.0000000000000e+00 -1.2989019682028e+05 
100  2.4056580253650e-01  2.7421066271223e-02  1.9954565512778e-03  1.8595237812229e-03  2.6831815254642e-01  4.6935655365814e-01  3.3897207468108e+00  2.2392086247530e+01  0.0000000000000e+00 -1.2988727673676e+05  1.2256462917327e-01 -1.2988704659719e+05  2.4644265894297e-01 -1.2988680738021e+05  3.7256482791226e-01 -1.2988748041660e+05  5.0007441459946e-01 -1.2988839333396e+05  6.2714904652263e-01 -1.2988919982973e+05  7.5285520149996e-01 -1.2988977292063e+05  8.7697373405227e-01 -1.2989009538429e+05  1.0000000000000e+00 -1.2989019710096e+05 
200  1.0180432969680e-01  1.0581594085139e-02  1.5583285265562e-03  1.3361547614938e-03  2.1226324345400e-01  2.4816728306178e-01  3.1685249775910e+00  2.4139690395919e+01  0.0000000000000e+00 -1.2988727676774e+05  1.2518919330973e-01 -1.2988702860046e+05  2.5057750215297e-01 -1.2988711049289e+05  3.7672156869606e-01 -1.2988774816927e+05  5.0277675453713e-01 -1.2988852269136e+05  6.2810760812516e-01 -1.2988925880905e+05  7.5263460905574e-01 -1.2988980903599e+05  8.7653283460390e-01 -1.2989010890085e+05  1.0000000000000e+00 -1.2989019712544e+05 
203  9.9986443354179e-02  1.0377060601098e-02  1.5520233453118e-03  1.3293958906285e-03  2.1159731545571e-01  2.4776114027190e-01  3.1681187028007e+00  2.4170207093947e+01  0.0000000000000e+00 -1.2988727676830e+05  1.2526264777067e-01 -1.2988702900716e+05  2.5068839565087e-01 -1.2988711250167e+05  3.7681305585202e-01 -1.2988775039018e+05  5.0283340321871e-01 -1.2988852371446e+05  6.2813363617745e-01 -1.2988925918402e+05  7.5264041017380e-01 -1.2988980943613e+05  8.7653136517109e-01 -1.2989010909969e+05  1.0000000000000e+00 -1.2989019712586e+05 
Climbing replica = 2
Step MaxReplicaForce MaxAtomForce GradV0 GradV1 GradVc EBF EBR RDT RD1 PE1 RD2 PE2 ... RDN PEN
203  2.1159731545571e-01  2.7487009249356e-02  1.5520233453118e-03  1.3293958906285e-03  2.1159731545571e-01  2.4776114027190e-01  3.1681187028007e+00  2.4170207093947e+01  0.0000000000000e+00 -1.2988727676830e+05  1.2526264777067e-01 -1.2988702900716e+05  2.5068839565087e-01 -1.2988711250167e+05  3.7681305585202e-01 -1.2988775039018e+05  5.0283340321871e-01 -1.2988852371446e+05  6.2813363617745e-01 -1.2988925918402e+05  7.5264041017380e-01 -1.2988980943613e+05  8.7653136517109e-01 -1.2989010909969e+05  1.0000000000000e+00 -1.2989019712586e+05 
