ITEM: TIMESTEP
0
ITEM: NUMBER OF ATOMS
37664
ITEM: BOX BOUNDS ff ff ff
-100 100
-100 100
-156.15 156.15
ITEM: ATOMS id x y z v_peratom_sxx v_peratom_syy v_peratom_szz v_peratom_sxy v_peratom_sxz v_peratom_syz c_atomPE 
1 -0.00662176 -0.000482214 -0.0127839 -5.19182 -5.17511 -9.53687 -0.0302278 0.185539 -0.0677084 -3.5153 
2 -0.00775626 -0.000342386 2.5407 -5.17964 -5.16993 -9.52174 -0.0304076 0.185644 -0.065949 -3.51536 
3 -0.00883349 -0.000207283 5.09442 -5.16329 -5.16054 -9.49735 -0.0297931 0.183393 -0.0631804 -3.51547 
4 -0.00984522 -6.78348e-05 7.64849 -5.143 -5.14704 -9.46136 -0.0288829 0.179595 -0.0600769 -3.51563 
5 -0.0107884 7.75935e-05 10.2031 -5.11805 -5.12962 -9.41671 -0.0274158 0.174415 -0.0563133 -3.51584 
6 -0.0116407 0.00026576 12.7583 -5.08616 -5.1026 -9.35558 -0.0267847 0.168196 -0.052105 -3.51612 
7 -0.0123848 0.000494593 15.3145 -5.04848 -5.07177 -9.2772 -0.0245953 0.161653 -0.0468155 -3.51647 
8 -0.0129712 0.000771561 17.8718 -4.99885 -5.02952 -9.1812 -0.0233381 0.156032 -0.0403225 -3.51691 
9 -0.0133923 0.00110862 20.4304 -4.94095 -4.97552 -9.06026 -0.0222324 0.150944 -0.0336972 -3.51745 
10 -0.0136265 0.00148848 22.9908 -4.86315 -4.90418 -8.90625 -0.0205398 0.145516 -0.0279889 -3.51813 
11 -0.0136666 0.00188063 25.5534 -4.76317 -4.80949 -8.71231 -0.0195472 0.140803 -0.0226411 -3.51898 
12 -0.0135017 0.0022662 28.1187 -4.63566 -4.68595 -8.47644 -0.0180188 0.136403 -0.0177309 -3.52 
13 -0.0131346 0.00260875 30.6869 -4.47366 -4.5286 -8.20174 -0.0182896 0.132178 -0.0158 -3.52117 
14 -0.0125521 0.00285294 33.2583 -4.27501 -4.33264 -7.89309 -0.0169385 0.128145 -0.0156363 -3.52245 
15 -0.0117327 0.00296985 35.8328 -4.0507 -4.10928 -7.56949 -0.0162333 0.125101 -0.017358 -3.52369 
16 -0.0106623 0.0029519 38.4101 -3.81253 -3.87154 -7.24421 -0.0160431 0.122942 -0.0209054 -3.52478 
17 -0.00928126 0.0027609 40.9898 -3.57515 -3.63288 -6.92775 -0.0141667 0.122477 -0.0251625 -3.52565 
18 -0.00750109 0.00235309 43.5718 -3.33647 -3.39146 -6.60773 -0.0128753 0.124391 -0.0306015 -3.52637 
19 -0.00519265 0.00169808 46.1561 -3.07572 -3.12431 -6.24748 -0.0114098 0.130353 -0.0369491 -3.5271 
20 -0.00219392 0.000712923 48.7431 -2.70448 -2.73169 -5.81513 -0.00551711 0.138355 -0.0448005 -3.52797 
21 5.95933e-07 -4.11185e-08 51.3317 -1.92223 -1.92014 -4.90598 0.000321721 -0.00728911 0.0023783 -3.53202 
22 4.01304e-07 -1.42881e-06 53.9138 -0.852687 -0.852732 -8.9177 -5.59646e-06 -7.84076e-05 -6.84596e-05 -3.48168 
23 8.71386e-07 -1.98378e-06 56.3885 1.68532 1.68534 1.87584 -5.72269e-05 6.82507e-05 6.28103e-06 -2.55581 
24 -1.23087e-07 -1.12453e-06 -53.8876 -2.60546 -2.60553 -6.54929 -2.63921e-05 2.84987e-05 -6.30348e-05 -3.40184 
25 1.02659e-07 -1.55837e-06 -51.3239 -2.08068 -2.08427 -5.61869 -0.000463079 -0.00965395 0.00394149 -3.52879 
26 0.00264087 -0.001064 -48.7474 -2.81841 -2.7802 -6.29054 0.00253259 0.165182 -0.0666319 -3.52588 
27 0.00589423 -0.00244045 -46.1672 -3.16037 -3.10328 -6.50399 0.00407677 0.143223 -0.0620457 -3.52629 
28 0.00777339 -0.00346953 -43.5861 -3.43881 -3.37448 -6.75894 0.00634776 0.132674 -0.0549508 -3.52586 
29 0.00875275 -0.00422381 -41.006 -3.68547 -3.62076 -7.0374 0.00693575 0.130076 -0.0467314 -3.52529 
30 0.00915809 -0.00475386 -38.4274 -3.92777 -3.86139 -7.33587 0.00869126 0.130363 -0.0388234 -3.52449 
31 0.00920339 -0.00506459 -35.851 -4.16736 -4.09842 -7.64731 0.00864701 0.131026 -0.0327508 -3.52346 
32 0.00898545 -0.00516696 -33.277 -4.39227 -4.32379 -7.96451 0.00922849 0.131007 -0.0280987 -3.52228 
33 0.00853421 -0.00506008 -30.7061 -4.59724 -4.52308 -8.27563 0.00738549 0.128587 -0.0262097 -3.52101 
34 0.00786016 -0.00475568 -28.1383 -4.7659 -4.69127 -8.55608 0.00603533 0.12596 -0.0272552 -3.51981 
35 0.00696079 -0.00430683 -25.5734 -4.90223 -4.82453 -8.80015 0.00229516 0.124035 -0.0306741 -3.51873 
36 0.0058532 -0.00377793 -23.0113 -5.0044 -4.92824 -9.00481 -0.00296673 0.123559 -0.0368047 -3.51781 
37 0.00455783 -0.00322287 -20.4515 -5.07827 -5.00447 -9.16329 -0.00843031 0.12697 -0.044223 -3.51708 
38 0.00313394 -0.00268792 -17.8936 -5.12888 -5.06055 -9.28548 -0.0126658 0.134827 -0.0523125 -3.51652 
39 0.00163803 -0.00219479 -15.3371 -5.16532 -5.10285 -9.37976 -0.0179438 0.143762 -0.0588324 -3.51607 
40 0.000121746 -0.00175857 -12.7817 -5.18796 -5.13322 -9.4486 -0.0221816 0.152933 -0.0636224 -3.51575 
41 -0.0013626 -0.00139441 -10.2272 -5.19991 -5.1533 -9.49434 -0.0252509 0.162984 -0.0673093 -3.51553 
42 -0.0027906 -0.00109823 -7.67325 -5.20543 -5.16625 -9.52209 -0.0271906 0.171416 -0.0693286 -3.51539 
43 -0.00414544 -0.000858537 -5.11961 -5.20541 -5.17393 -9.53822 -0.0288397 0.178589 -0.0696687 -3.5153 
44 -0.0054212 -0.000651635 -2.56619 -5.20091 -5.17666 -9.54288 -0.0297516 0.183259 -0.0690331 -3.51527 
45 0.0883395 2.15957 1.2635 -4.07124 -5.13781 -3.83234 -0.0814247 -0.386057 0.00498467 -3.52911 
46 0.061104 2.16063 3.81701 -4.06183 -5.13628 -3.81772 -0.0663505 -0.385725 -0.00442714 -3.52913 
47 0.0339403 2.16134 6.37081 -4.0548 -5.13417 -3.79538 -0.0510038 -0.386189 -0.0137876 -3.52915 
48 0.00683988 2.16173 8.92504 -4.04968 -5.12756 -3.76578 -0.0355106 -0.387224 -0.0238759 -3.52917 
49 -0.0201734 2.16178 11.4798 -4.04478 -5.12127 -3.72367 -0.0199565 -0.388221 -0.033611 -3.52921 
50 -0.0470671 2.16156 14.0354 -4.04448 -5.10723 -3.6689 -0.00435506 -0.38931 -0.0447317 -3.52926 
51 -0.0738125 2.16103 16.592 -4.04234 -5.09121 -3.60227 0.0100392 -0.390568 -0.0577569 -3.52931 
52 -0.100349 2.16021 19.1498 -4.04377 -5.06659 -3.51683 0.0240028 -0.391329 -0.0714261 -3.52939 
53 -0.126657 2.15912 21.7091 -4.0445 -5.03438 -3.40852 0.0356883 -0.391965 -0.0870818 -3.52948 
54 -0.152736 2.15773 24.2704 -4.04497 -4.9874 -3.27248 0.0457787 -0.392678 -0.105925 -3.52959 
55 -0.178555 2.15607 26.834 -4.03411 -4.92004 -3.10433 0.0532326 -0.392486 -0.127479 -3.52974 
56 -0.204089 2.15418 29.4004 -4.01133 -4.82366 -2.9038 0.0575591 -0.391464 -0.149227 -3.52994 
57 -0.229321 2.1521 31.97 -3.95827 -4.69469 -2.67086 0.0599625 -0.389366 -0.16887 -3.53021 
58 -0.254208 2.1499 34.5428 -3.86341 -4.52209 -2.41502 0.0605059 -0.386262 -0.182039 -3.53057 
59 -0.278694 2.14758 37.1186 -3.72542 -4.31648 -2.14909 0.0606319 -0.381394 -0.187638 -3.53097 
60 -0.302681 2.14509 39.6972 -3.54664 -4.0872 -1.88284 0.0617615 -0.37406 -0.193463 -3.53138 
61 -0.326085 2.14229 42.278 -3.34371 -3.85081 -1.62108 0.0656103 -0.36427 -0.204414 -3.53173 
62 -0.348834 2.13907 44.8608 -3.12661 -3.59695 -1.34848 0.0690231 -0.351526 -0.226406 -3.532 
63 -0.370866 2.13565 47.4457 -2.86515 -3.28157 -1.05916 0.0702602 -0.334325 -0.252474 -3.53228 
64 -0.392512 2.13371 50.032 -2.40004 -2.79968 -0.460413 0.0401639 -0.381866 -0.218992 -3.53328 
65 -0.418483 2.1304 52.6263 -1.76593 -2.00461 -0.560676 0.0453909 -0.308762 -0.730309 -3.52455 
66 -0.44812 2.14653 55.1778 6.97719 7.73863 2.43055 0.0331587 -0.597264 1.76993 -3.02528 
67 0.649859 2.05055 -55.162 1.38981 0.842867 -0.677094 -0.188212 -0.0991763 1.20786 -3.26036 
68 0.633027 2.08274 -52.6122 -1.11346 -2.21942 -0.458289 -0.374712 -0.488964 -0.161659 -3.5357 
69 0.607028 2.08678 -50.0319 -2.01806 -2.60928 -0.935867 -0.139703 -0.396008 0.0748576 -3.53405 
70 0.585562 2.08761 -47.4546 -2.74272 -3.1218 -1.32614 -0.129292 -0.334479 0.14905 -3.53285 
71 0.563686 2.09056 -44.8738 -3.1815 -3.48637 -1.48208 -0.105284 -0.342747 0.194694 -3.53216 
72 0.540816 2.0944 -42.2931 -3.48761 -3.76518 -1.70431 -0.0917434 -0.353768 0.209692 -3.53171 
73 0.517072 2.0986 -39.7135 -3.73455 -4.0173 -1.94898 -0.0881629 -0.364518 0.218914 -3.53126 
74 0.492579 2.10304 -37.1359 -3.93979 -4.24826 -2.20585 -0.0902758 -0.374873 0.227569 -3.53082 
75 0.467468 2.10773 -34.5607 -4.09857 -4.45584 -2.46812 -0.0981646 -0.383405 0.230159 -3.53039 
76 0.441831 2.11269 -31.9886 -4.20909 -4.63201 -2.72471 -0.110996 -0.390895 0.224418 -3.53001 
77 0.41573 2.11784 -29.4196 -4.27102 -4.77187 -2.95968 -0.12534 -0.39734 0.209412 -3.52972 
78 0.389221 2.12305 -26.8537 -4.29462 -4.8728 -3.16552 -0.138866 -0.402566 0.187496 -3.52952 
79 0.362356 2.12817 -24.2908 -4.29034 -4.94953 -3.34059 -0.15001 -0.405628 0.162274 -3.52937 
80 0.335216 2.13304 -21.7303 -4.27019 -5.00338 -3.481 -0.156905 -0.405265 0.137698 -3.52928 
81 0.307876 2.13758 -19.1718 -4.24038 -5.04206 -3.58854 -0.160181 -0.403363 0.11416 -3.52922 
82 0.280417 2.14172 -16.6149 -4.21014 -5.07095 -3.67071 -0.158466 -0.401066 0.0931082 -3.52918 
83 0.25289 2.14547 -14.0592 -4.18096 -5.09233 -3.73379 -0.153241 -0.398084 0.0747256 -3.52915 
84 0.225346 2.14881 -11.5045 -4.15614 -5.10877 -3.77966 -0.144887 -0.394505 0.0600217 -3.52912 
85 0.197834 2.15172 -8.95034 -4.13169 -5.12077 -3.80875 -0.135136 -0.391835 0.0463971 -3.52911 
86 0.17037 2.15424 -6.39664 -4.11233 -5.12848 -3.8283 -0.122888 -0.389396 0.0346489 -3.5291 
87 0.142978 2.15638 -3.84319 -4.09597 -5.13432 -3.83768 -0.110001 -0.387406 0.0242786 -3.5291 
88 0.115637 2.15816 -1.28986 -4.08239 -5.13675 -3.8387 -0.0959885 -0.386503 0.0146107 -3.52911 
89 0.210763 4.32621 -0.0129534 -3.40816 -4.74964 -3.29976 -0.105414 -0.879314 0.0508548 -3.53372 
90 0.279779 6.49838 1.264 -2.78957 -4.36053 -2.86414 -0.104941 -1.31747 0.0654855 -3.53389 
91 2.20087 2.73603 -0.00984237 -3.40815 -3.53281 -3.07287 -0.441417 -0.280055 0.267776 -3.52981 
92 2.16651 2.76262 2.54353 -3.38973 -3.54662 -3.06369 -0.437029 -0.285634 0.260615 -3.52981 
93 2.28602 4.92714 1.26594 -2.73733 -3.56858 -2.74655 -0.36522 -0.762958 0.0401141 -3.53337 
94 4.283 3.33509 1.2698 -3.42097 -2.89506 -2.74314 -0.516107 -0.180384 0.767263 -3.53334 
95 0.157295 4.32853 2.54029 -3.40089 -4.75155 -3.29167 -0.086448 -0.879502 0.0326101 -3.53373 
96 0.103898 4.33014 5.09372 -3.39727 -4.75366 -3.27717 -0.0668665 -0.879792 0.0138734 -3.53373 
97 0.200076 6.50124 3.81705 -2.78603 -4.36432 -2.85541 -0.083142 -1.31835 0.0388695 -3.53389 
98 2.22518 4.95446 3.81926 -2.72504 -3.58105 -2.73539 -0.351368 -0.765356 0.0242633 -3.53337 
99 0.120453 6.50304 6.37032 -2.78719 -4.3691 -2.84197 -0.0613998 -1.31944 0.0119199 -3.53388 
100 4.2413 3.38683 3.82311 -3.40258 -2.9125 -2.73225 -0.518488 -0.194959 0.761125 -3.53335 
101 2.13188 2.78873 5.09708 -3.37302 -3.56142 -3.04758 -0.430564 -0.291577 0.253144 -3.52981 
102 2.09698 2.81436 7.65097 -3.35817 -3.57766 -3.02499 -0.422337 -0.298619 0.245434 -3.52981 
103 2.16407 4.98091 6.37283 -2.71578 -3.59483 -2.71832 -0.335945 -0.768228 0.00780187 -3.53337 
104 4.19899 3.43796 6.37664 -3.38597 -2.93261 -2.71519 -0.518664 -0.209765 0.754858 -3.53335 
105 0.0505713 4.33106 7.6475 -3.39728 -4.7554 -3.25641 -0.0474132 -0.880755 -0.00520014 -3.53373 
106 -0.00267646 4.33131 10.2017 -3.4017 -4.75728 -3.22917 -0.027232 -0.882152 -0.0255476 -3.53372 
107 0.040916 6.5038 8.92396 -2.79273 -4.37566 -2.82308 -0.0388783 -1.32095 -0.0161322 -3.53386 
108 2.10267 5.00654 8.92676 -2.71034 -3.60986 -2.69508 -0.318727 -0.772201 -0.0096129 -3.53337 
109 -0.0385007 6.50351 11.4781 -2.80378 -4.38304 -2.79889 -0.0167056 -1.32347 -0.0459591 -3.53383 
110 4.15604 3.4885 8.93054 -3.37142 -2.95578 -2.69146 -0.51664 -0.225844 0.748748 -3.53335 
111 2.06179 2.83952 10.2053 -3.34608 -3.59397 -2.99325 -0.412342 -0.306362 0.236368 -3.52981 
112 2.02638 2.86419 12.7603 -3.33471 -3.61148 -2.9525 -0.39967 -0.314412 0.227314 -3.5298 
113 2.04103 5.03129 11.4812 -2.70861 -3.62656 -2.66206 -0.299269 -0.776601 -0.0290813 -3.53336 
114 4.11248 3.53843 11.4849 -3.35943 -2.97888 -2.65961 -0.511833 -0.242788 0.740913 -3.53336 
115 -0.055788 4.33087 12.7566 -3.40813 -4.75677 -3.19089 -0.00725023 -0.883042 -0.0466674 -3.53373 
116 -0.108744 4.32978 15.3123 -3.42262 -4.75626 -3.14469 0.0122211 -0.884741 -0.0708052 -3.53372 
117 -0.117745 6.50217 14.0328 -2.8198 -4.39182 -2.76632 0.00599455 -1.3262 -0.0778214 -3.5338 
118 1.97918 5.05515 14.0364 -2.7101 -3.64331 -2.62211 -0.277946 -0.781831 -0.0504159 -3.53336 
119 -0.196784 6.4998 16.5884 -2.83995 -4.40101 -2.72341 0.0280334 -1.32817 -0.112997 -3.53377 
120 4.06836 3.5877 14.04 -3.35012 -3.0068 -2.61852 -0.50406 -0.261042 0.731893 -3.53336 
121 1.99074 2.88837 15.3161 -3.32611 -3.62997 -2.90153 -0.385166 -0.324328 0.216729 -3.52978 
122 1.95492 2.91203 17.873 -3.32044 -3.64492 -2.8339 -0.368702 -0.334714 0.203285 -3.52977 
123 1.91715 5.07812 16.5924 -2.71701 -3.65997 -2.57204 -0.254807 -0.787562 -0.073684 -3.53334 
124 4.02366 3.63631 16.596 -3.34447 -3.03675 -2.56724 -0.493837 -0.281043 0.72184 -3.53335 
125 -0.161495 4.32804 17.869 -3.43902 -4.75332 -3.08374 0.0310713 -0.886252 -0.0968703 -3.53372 
126 -0.213971 4.32564 20.427 -3.46162 -4.74864 -3.00729 0.0490973 -0.887008 -0.126771 -3.53371 
127 -0.275546 6.49637 19.1451 -2.86993 -4.41092 -2.67382 0.0490079 -1.3308 -0.152491 -3.5337 
128 1.85498 5.10015 19.1496 -2.72798 -3.67675 -2.50445 -0.229467 -0.794705 -0.100795 -3.53334 
129 -0.353973 6.4919 21.703 -2.90466 -4.41972 -2.6063 0.0691124 -1.33316 -0.195631 -3.53365 
130 3.97845 3.68418 19.153 -3.34035 -3.06823 -2.50042 -0.479474 -0.303881 0.70942 -3.53334 
131 1.91896 2.93515 20.4313 -3.31526 -3.66069 -2.75008 -0.348904 -0.346318 0.188682 -3.52975 
132 1.88287 2.95772 22.9912 -3.31251 -3.67169 -2.64815 -0.327219 -0.360509 0.171191 -3.52971 
133 1.79273 5.1212 21.7083 -2.7464 -3.6911 -2.42364 -0.202846 -0.804386 -0.132365 -3.53331 
134 3.93275 3.73129 21.7116 -3.33931 -3.10181 -2.41797 -0.461031 -0.329429 0.693537 -3.53333 
135 -0.266165 4.3226 22.9867 -3.48887 -4.73507 -2.91145 0.0649039 -0.88744 -0.160549 -3.53371 
136 -0.318054 4.31892 25.5484 -3.51682 -4.71152 -2.7901 0.0791181 -0.887843 -0.198015 -3.53372 
137 -0.432028 6.48641 24.2627 -2.94601 -4.42415 -2.51778 0.0877907 -1.33491 -0.245337 -3.53359 
138 1.73041 5.14127 24.2687 -2.76681 -3.70229 -2.32315 -0.173331 -0.8164 -0.168734 -3.53328 
139 -0.509667 6.47997 26.8243 -2.99 -4.41877 -2.40685 0.104992 -1.33558 -0.29795 -3.53353 
140 3.88656 3.77759 24.2718 -3.34113 -3.13248 -2.31838 -0.439377 -0.358384 0.672852 -3.53329 
141 1.84668 2.97971 25.5532 -3.3063 -3.67416 -2.51884 -0.302683 -0.376963 0.149377 -3.52967 
142 1.81047 3.00115 28.1178 -3.29288 -3.66197 -2.36137 -0.276137 -0.39431 0.125601 -3.52962 
143 1.66807 5.16038 26.8312 -2.78915 -3.70262 -2.19596 -0.14289 -0.829456 -0.208647 -3.53324 
144 3.83997 3.82309 26.8342 -3.33882 -3.15919 -2.19264 -0.413242 -0.390786 0.648657 -3.53325 
145 -0.369582 4.31471 28.1125 -3.54172 -4.67085 -2.63629 0.0908242 -0.886225 -0.237073 -3.53376 
146 -0.420721 4.31008 30.6795 -3.55203 -4.60123 -2.44973 0.0990191 -0.88326 -0.276372 -3.53386 
147 -0.586823 6.47274 29.3885 -3.03257 -4.39544 -2.26347 0.119675 -1.33447 -0.352543 -3.53351 
148 1.60581 5.17863 29.3964 -2.80565 -3.68963 -2.04166 -0.111405 -0.843829 -0.250674 -3.5332 
149 -0.663455 6.46497 31.9557 -3.06144 -4.34624 -2.08671 0.131189 -1.33118 -0.405599 -3.53353 
150 3.79311 3.86781 29.3992 -3.33149 -3.17546 -2.03922 -0.38503 -0.425568 0.621298 -3.5332 
151 1.77433 3.02214 30.6852 -3.26261 -3.62807 -2.17581 -0.248615 -0.410666 0.101779 -3.52958 
152 1.73843 3.04279 33.2559 -3.20527 -3.55957 -1.95975 -0.223685 -0.422945 0.0814675 -3.52957 
153 1.54374 5.19622 31.9646 -2.81074 -3.65252 -1.86102 -0.0831131 -0.858101 -0.290481 -3.53314 
154 3.74616 3.91185 31.9672 -3.3058 -3.16927 -1.8609 -0.355813 -0.45778 0.592649 -3.53315 
155 -0.471436 4.30521 33.2498 -3.53418 -4.49461 -2.23329 0.103868 -0.879145 -0.309053 -3.53402 
156 -0.521653 4.30029 35.8235 -3.4714 -4.33883 -1.9902 0.1055 -0.873522 -0.331279 -3.53429 
157 -0.739502 6.457 34.5263 -3.05957 -4.24836 -1.87225 0.138738 -1.32582 -0.447398 -3.53367 
158 1.48205 5.21347 34.5361 -2.7853 -3.57854 -1.65558 -0.0593281 -0.867294 -0.321744 -3.53312 
159 -0.814881 6.44922 37.1005 -3.00672 -4.09355 -1.63226 0.143021 -1.31614 -0.474726 -3.53394 
160 3.69948 3.95546 34.5383 -3.25009 -3.13007 -1.65573 -0.329637 -0.483179 0.567014 -3.53312 
161 1.70296 3.06329 35.8299 -3.10375 -3.44801 -1.72447 -0.202003 -0.427533 0.0690024 -3.52963 
162 1.6681 3.08374 38.4068 -2.95486 -3.28745 -1.47828 -0.186764 -0.423541 0.0646997 -3.5298 
163 1.42101 5.23077 37.1108 -2.70983 -3.45507 -1.42549 -0.0426326 -0.867405 -0.337624 -3.53319 
164 3.65343 3.99888 37.1129 -3.14545 -3.03806 -1.42736 -0.309848 -0.496044 0.550357 -3.53318 
165 -0.571269 4.29537 38.4003 -3.3532 -4.1372 -1.73891 0.106817 -0.863515 -0.344629 -3.53465 
166 -0.620139 4.29025 40.9797 -3.18993 -3.90707 -1.49342 0.107168 -0.849019 -0.35849 -3.53498 
167 -0.889453 6.44166 39.6779 -2.89258 -3.87953 -1.38707 0.142716 -1.30049 -0.490438 -3.53431 
168 1.36086 5.24827 39.6886 -2.57808 -3.27978 -1.18897 -0.0349625 -0.855761 -0.34107 -3.53336 
169 -0.96306 6.43405 42.2576 -2.72531 -3.62519 -1.15448 0.141367 -1.27952 -0.50605 -3.53466 
170 3.60827 4.04224 39.6905 -2.98251 -2.89383 -1.19377 -0.296195 -0.497119 0.542656 -3.53335 
171 1.63391 3.10402 40.9863 -2.76822 -3.09246 -1.22644 -0.175853 -0.417301 0.0602864 -3.53003 
172 1.60035 3.12402 43.5679 -2.55234 -2.86422 -0.970402 -0.167352 -0.413662 0.0477628 -3.53032 
173 1.3017 5.26583 42.2686 -2.39647 -3.05826 -0.954913 -0.0338617 -0.839128 -0.347503 -3.53361 
174 3.56399 4.08547 42.2703 -2.76886 -2.70141 -0.960212 -0.287168 -0.496783 0.531986 -3.53361 
175 -0.668195 4.28476 43.561 -2.99237 -3.65762 -1.24817 0.110083 -0.831429 -0.380241 -3.53528 
176 -0.715487 4.27884 46.1438 -2.77427 -3.38308 -0.984028 0.112018 -0.81057 -0.41784 -3.53554 
177 -1.03572 6.42621 44.8385 -2.51468 -3.33612 -0.938964 0.139892 -1.25599 -0.526928 -3.53501 
178 1.24344 5.28331 44.8502 -2.16919 -2.79821 -0.72169 -0.0362188 -0.825851 -0.367782 -3.53393 
179 -1.10772 6.41843 47.4199 -2.26196 -3.00386 -0.748787 0.138621 -1.23224 -0.546038 -3.53535 
180 3.52045 4.12851 44.8516 -2.51324 -2.4715 -0.736495 -0.281527 -0.502922 0.509865 -3.5339 
181 1.56733 3.1437 46.1511 -2.31604 -2.60983 -0.694441 -0.161636 -0.4193 0.0191731 -3.53058 
182 1.53493 3.16352 48.7362 -2.05768 -2.3458 -0.324254 -0.174523 -0.43373 -0.0174164 -3.53023 
183 1.18573 5.30073 47.4327 -1.91069 -2.49466 -0.489374 -0.0555161 -0.828409 -0.41313 -3.53418 
184 3.47747 4.17141 47.4336 -2.21163 -2.21226 -0.528467 -0.280191 -0.5251 0.465605 -3.5341 
185 -0.762217 4.27354 48.7281 -2.56816 -3.05238 -0.634505 0.102654 -0.783833 -0.430028 -3.53527 
186 -0.811621 4.26877 51.3169 -1.98873 -2.34914 0.322394 0.0838015 -0.846552 -0.652875 -3.53802 
187 -1.17889 6.41384 50.0002 -2.03316 -2.54095 -0.313628 0.0670016 -1.24446 -0.625152 -3.53578 
188 1.12775 5.31799 50.0156 -1.55989 -2.06747 -0.00351101 -0.103405 -0.921418 -0.585747 -3.5349 
189 -1.25707 6.40546 52.5877 -1.61262 -2.48659 0.643525 0.176279 -1.31703 -0.612396 -3.53281 
190 3.43505 4.21346 50.0156 -1.75174 -1.84496 -0.0296216 -0.304599 -0.647999 0.31856 -3.53494 
191 1.50027 3.18358 51.3264 -1.43153 -1.70013 0.662571 -0.172671 -0.553233 -0.132137 -3.53269 
192 1.46587 3.20964 53.9052 0.0265735 0.953829 -0.796311 0.566221 -0.561188 0.13868 -3.37565 
193 1.06597 5.33731 52.6041 -1.24934 -1.89875 0.441062 -0.237116 -0.801143 -0.410633 -3.52778 
194 3.38747 4.26008 52.6041 -1.41009 -1.7142 0.389381 -0.390434 -0.639163 0.587717 -3.52745 
195 -0.866323 4.2769 53.8949 -0.0505796 -0.206414 -1.18006 0.079469 -1.26171 1.02744 -3.38132 
196 1.3298 4.1174 -56.3442 5.0695 2.90529 1.6023 -1.25491 -0.273866 0.110305 -2.79034 
197 -1.33605 6.40133 55.1665 4.17938 2.79785 1.28976 0.319814 -1.52332 0.198278 -3.26107 
198 1.00488 5.36129 55.1754 5.64291 6.63213 2.70818 0.370234 -0.636361 -0.0321209 -3.15047 
199 1.98371 6.26223 -55.1334 6.94015 9.11549 2.92969 0.134115 -0.847954 -0.525829 -3.02309 
200 3.34328 4.30996 55.1754 5.53077 7.3585 2.86952 0.118566 -0.278341 0.56293 -3.15115 
201 2.87095 2.09325 -56.362 4.04256 6.00653 1.8814 -3.16459 0.252826 0.341957 -2.79939 
202 2.84551 2.1252 -53.8874 0.165369 0.763504 -3.02659 -0.981949 -0.73277 -0.16231 -3.51266 
203 3.53831 4.21674 -55.1525 6.0317 6.27398 1.75904 0.302419 -1.21937 -0.0444581 -3.14331 
204 5.07312 2.13635 -55.1525 6.04997 7.03894 2.00285 0.446012 -0.528076 0.0806331 -3.14511 
205 1.29262 4.16451 -53.8815 0.861126 -0.347663 -3.67566 -0.408595 -0.573927 0.838983 -3.51412 
206 1.24176 4.17585 -51.3147 -1.28969 -1.91414 -0.396862 -0.214953 -0.885853 0.219648 -3.53913 
207 1.90264 6.26187 -52.5941 -0.919 -1.45694 -0.572868 -0.184229 -1.1682 0.819991 -3.52795 
208 3.4607 4.22944 -52.6036 -0.750495 -0.926551 0.0940584 -0.677599 -0.496512 0.19104 -3.53021 
209 1.82403 6.27282 -50.0101 -1.65115 -2.36005 -0.303517 -0.179419 -1.24542 0.435358 -3.53684 
210 5.01221 2.17771 -52.6036 -1.34306 -0.349548 0.0532439 -0.502707 0.0188533 0.991328 -3.52955 
211 2.80522 2.14769 -51.32 -1.10564 -0.949859 -0.140971 -0.279225 -0.338768 0.263631 -3.5342 
212 2.77402 2.1742 -48.7413 -2.03396 -1.86887 -0.626519 -0.298036 -0.138364 0.357556 -3.53082 
213 3.40036 4.25787 -50.02 -1.46078 -1.68004 -0.194601 -0.416726 -0.669869 0.299635 -3.53489 
214 4.971 2.23184 -50.02 -1.8781 -1.2918 -0.161454 -0.299977 0.0571877 0.840583 -3.53494 
215 1.1917 4.18029 -48.7361 -2.25183 -2.79911 -0.865495 -0.188819 -0.778811 0.283099 -3.5364 
216 1.14526 4.18595 -46.1557 -2.73812 -3.22315 -1.06695 -0.171335 -0.78511 0.401399 -3.53606 
217 1.75244 6.27869 -47.4315 -2.17691 -2.85695 -0.756917 -0.223553 -1.19973 0.549616 -3.53592 
218 3.3484 4.28708 -47.4424 -1.9528 -2.21737 -0.649241 -0.303867 -0.578915 0.355485 -3.5342 
219 1.68096 6.29027 -44.8513 -2.56729 -3.21137 -0.943482 -0.212596 -1.21071 0.607094 -3.53536 
220 4.93787 2.28372 -47.4414 -2.37745 -1.79591 -0.615464 -0.21156 0.163335 0.869355 -3.53422 
221 2.74699 2.20085 -46.161 -2.45977 -2.27737 -0.825508 -0.231919 -0.101353 0.404331 -3.53075 
222 2.72071 2.22897 -43.58 -2.78829 -2.58969 -1.03943 -0.21415 -0.102478 0.422089 -3.53036 
223 3.29735 4.31888 -44.8624 -2.32065 -2.5736 -0.798694 -0.264275 -0.579847 0.387015 -3.53393 
224 4.90724 2.33621 -44.8612 -2.74679 -2.14312 -0.790052 -0.175012 0.186601 0.898765 -3.5339 
225 1.09832 4.19405 -43.5748 -3.09052 -3.53689 -1.29207 -0.156663 -0.801347 0.427569 -3.53552 
226 1.05045 4.20294 -40.9947 -3.36005 -3.80558 -1.53056 -0.152648 -0.821286 0.435974 -3.53506 
227 1.60887 6.3035 -42.2712 -2.86284 -3.5117 -1.16785 -0.213105 -1.23531 0.623957 -3.53485 
228 3.24639 4.35221 -42.2822 -2.60778 -2.86292 -1.0024 -0.247609 -0.591942 0.402211 -3.53359 
229 1.53565 6.31748 -39.6923 -3.07936 -3.77487 -1.40747 -0.221785 -1.26055 0.629643 -3.53438 
230 4.87736 2.38973 -42.2808 -3.04518 -2.41743 -0.997213 -0.163571 0.18862 0.922018 -3.53356 
231 2.69413 2.25794 -40.9997 -3.05308 -2.84237 -1.26967 -0.210081 -0.107873 0.43581 -3.53004 
232 2.66704 2.28766 -38.4209 -3.27103 -3.05211 -1.51094 -0.214492 -0.112131 0.448196 -3.52977 
233 3.195 4.3867 -39.703 -2.83247 -3.0947 -1.22719 -0.242434 -0.603609 0.411778 -3.53331 
234 4.84744 2.44436 -39.7015 -3.28888 -2.62708 -1.22343 -0.164053 0.187733 0.943865 -3.53328 
235 1.00156 4.21222 -38.4163 -3.56612 -4.04524 -1.77801 -0.156934 -0.83917 0.440817 -3.53463 
236 0.951678 4.22188 -35.8402 -3.70957 -4.25049 -2.02722 -0.168989 -0.854832 0.437976 -3.53424 
237 1.46119 6.33209 -37.1156 -3.22327 -3.99282 -1.65768 -0.23578 -1.28132 0.626512 -3.53397 
238 3.14302 4.42225 -37.1258 -2.99776 -3.27271 -1.46206 -0.247847 -0.615142 0.414965 -3.5331 
239 1.3856 6.34735 -34.5421 -3.29595 -4.1581 -1.90095 -0.250773 -1.29878 0.60999 -3.53365 
240 4.8173 2.50009 -37.1242 -3.48108 -2.77791 -1.45413 -0.175854 0.183906 0.959054 -3.53308 
241 2.63947 2.31809 -35.8445 -3.44116 -3.21568 -1.75174 -0.227001 -0.117543 0.45545 -3.52958 
242 2.61149 2.34914 -33.2708 -3.56402 -3.32924 -1.98723 -0.247792 -0.12831 0.452808 -3.52949 
243 3.09046 4.45876 -34.5515 -3.10061 -3.39241 -1.69006 -0.262128 -0.631571 0.403669 -3.53301 
244 4.78696 2.55681 -34.5496 -3.61192 -2.86907 -1.68031 -0.197955 0.169867 0.960372 -3.53299 
245 0.900968 4.23194 -33.2671 -3.78914 -4.41245 -2.2717 -0.183727 -0.867626 0.425047 -3.53394 
246 0.849547 4.24227 -30.6974 -3.81478 -4.53087 -2.49695 -0.198576 -0.876654 0.399739 -3.53373 
247 1.30906 6.36312 -31.972 -3.3034 -4.26724 -2.12133 -0.264018 -1.31166 0.576131 -3.53347 
248 3.03727 4.49593 -31.9804 -3.14774 -3.46383 -1.90123 -0.28445 -0.652451 0.37796 -3.53301 
249 1.23172 6.37901 -29.4055 -3.26831 -4.33029 -2.30918 -0.272026 -1.31952 0.530588 -3.53341 
250 4.75631 2.61422 -31.9782 -3.69079 -2.91348 -1.89283 -0.229769 0.144038 0.94937 -3.53298 
251 2.58307 2.38065 -30.7004 -3.63676 -3.40337 -2.20832 -0.275752 -0.145036 0.440534 -3.52947 
252 2.55413 2.41233 -28.1332 -3.66928 -3.44176 -2.40407 -0.306234 -0.165971 0.420356 -3.5295 
253 2.98337 4.53332 -29.4126 -3.15022 -3.49943 -2.08977 -0.310778 -0.674565 0.342249 -3.53306 
254 4.72514 2.67199 -29.4101 -3.72587 -2.92418 -2.08079 -0.267382 0.109059 0.929482 -3.53302 
255 0.797538 4.25264 -28.1311 -3.79775 -4.60832 -2.68813 -0.210941 -0.883251 0.364731 -3.53364 
256 0.745026 4.26277 -25.5677 -3.75673 -4.65847 -2.84599 -0.219349 -0.887346 0.324418 -3.5336 
257 1.15372 6.39459 -26.8421 -3.20863 -4.36189 -2.45848 -0.27577 -1.32338 0.47695 -3.53343 
258 2.92864 4.57051 -26.8478 -3.12328 -3.51653 -2.25144 -0.337992 -0.695804 0.302577 -3.53311 
259 1.07521 6.40949 -24.2814 -3.13861 -4.37354 -2.5766 -0.274055 -1.32436 0.421806 -3.53349 
260 4.6932 2.72977 -26.8451 -3.72877 -2.91619 -2.24241 -0.306673 0.0696419 0.905443 -3.53307 
261 2.52457 2.44392 -25.5689 -3.67318 -3.46318 -2.57191 -0.337733 -0.18811 0.396572 -3.52954 
262 2.49438 2.47523 -23.0073 -3.65738 -3.47032 -2.70644 -0.365971 -0.207396 0.373992 -3.52959 
263 2.87311 4.60715 -24.2858 -3.07877 -3.52079 -2.38181 -0.361511 -0.71343 0.263344 -3.53317 
264 4.66033 2.78731 -24.2828 -3.71148 -2.89985 -2.375 -0.344225 0.0319609 0.881792 -3.53312 
265 0.692132 4.27242 -23.0069 -3.70142 -4.69024 -2.97185 -0.222734 -0.88838 0.283346 -3.5336 
266 0.638966 4.28141 -20.4481 -3.64592 -4.70811 -3.07012 -0.220405 -0.88778 0.245108 -3.53362 
267 0.996319 6.42344 -21.7228 -3.07002 -4.37543 -2.66446 -0.267202 -1.3235 0.369432 -3.53356 
268 2.81681 4.64306 -21.7259 -3.02795 -3.52088 -2.48509 -0.380317 -0.727063 0.226918 -3.53322 
269 0.91715 6.43629 -19.1658 -3.00659 -4.37202 -2.72833 -0.256391 -1.32213 0.321387 -3.53365 
270 4.62647 2.84446 -21.7228 -3.68254 -2.88067 -2.47693 -0.378154 -0.00364883 0.859735 -3.53317 
271 2.46357 2.50614 -20.4478 -3.62827 -3.47341 -2.81346 -0.389262 -0.222455 0.353643 -3.52964 
272 2.43219 2.53657 -17.8901 -3.5973 -3.47457 -2.89655 -0.408329 -0.235081 0.335691 -3.52968 
273 2.75982 4.67811 -19.1679 -2.97744 -3.51938 -2.56533 -0.393637 -0.736975 0.194876 -3.53326 
274 4.59163 2.90113 -19.1645 -3.64867 -2.86774 -2.56106 -0.4078 -0.0349917 0.840618 -3.5332 
275 0.585615 4.28967 -17.8911 -3.59311 -4.72021 -3.14562 -0.21373 -0.886584 0.211161 -3.53364 
276 0.532131 4.29717 -15.3353 -3.54696 -4.72771 -3.19972 -0.204097 -0.884665 0.181001 -3.53367 
277 0.837758 6.448 -16.6101 -2.9544 -4.3687 -2.77849 -0.242641 -1.32084 0.278865 -3.5337 
278 2.70219 4.71227 -16.6113 -2.9305 -3.5208 -2.62728 -0.40215 -0.743923 0.167128 -3.53329 
279 0.758197 6.45854 -14.0554 -2.9082 -4.36237 -2.81253 -0.226033 -1.31927 0.240722 -3.53377 
280 4.55583 2.95728 -16.6078 -3.61213 -2.85651 -2.62509 -0.432635 -0.0620412 0.824753 -3.53323 
281 2.4003 2.56652 -15.3337 -3.56244 -3.4795 -2.95912 -0.422771 -0.245461 0.321266 -3.52972 
282 2.36795 2.59599 -12.7785 -3.53099 -3.4856 -3.00744 -0.433007 -0.252882 0.309557 -3.52973 
283 2.644 4.74555 -14.0559 -2.88729 -3.52196 -2.67472 -0.40552 -0.749411 0.142773 -3.53331 
284 4.51914 3.01291 -14.0523 -3.57644 -2.85132 -2.66898 -0.45333 -0.0851087 0.811913 -3.53326 
285 0.47856 4.30388 -12.7805 -3.50932 -4.73477 -3.23905 -0.190699 -0.882951 0.153987 -3.53368 
286 0.424965 4.30982 -10.2263 -3.47741 -4.73881 -3.26854 -0.176155 -0.88193 0.129383 -3.5337 
287 0.678539 6.46794 -11.5014 -2.87238 -4.36024 -2.83717 -0.207969 -1.31778 0.206096 -3.53381 
288 2.58532 4.77795 -11.5013 -2.84982 -3.52758 -2.70962 -0.405186 -0.75304 0.122284 -3.53332 
289 0.598806 6.47619 -8.94791 -2.84396 -4.3587 -2.85391 -0.188862 -1.31716 0.174292 -3.53384 
290 4.4816 3.06798 -11.4976 -3.54482 -2.85004 -2.70447 -0.470871 -0.104249 0.801057 -3.53328 
291 2.3352 2.62496 -10.224 -3.5015 -3.49238 -3.04054 -0.439801 -0.259186 0.298708 -3.52975 
292 2.30209 2.65344 -7.67008 -3.47426 -3.50076 -3.06025 -0.443256 -0.264985 0.289592 -3.52977 
293 2.52619 4.80947 -8.94733 -2.81952 -3.53382 -2.7324 -0.401772 -0.755673 0.103646 -3.53333 
294 4.44327 3.12251 -8.94355 -3.51419 -2.85301 -2.72809 -0.484542 -0.12183 0.792207 -3.5333 
295 0.371374 4.315 -7.67266 -3.45232 -4.74286 -3.28829 -0.159286 -0.880608 0.108101 -3.5337 
296 0.317808 4.31945 -5.11931 -3.43302 -4.74557 -3.29806 -0.141985 -0.879801 0.0882555 -3.53371 
297 0.519049 6.48335 -6.39475 -2.82283 -4.35726 -2.86403 -0.168434 -1.31686 0.145956 -3.53386 
298 2.46667 4.84014 -6.39376 -2.79272 -3.54011 -2.745 -0.39557 -0.757254 0.0869574 -3.53335 
299 0.439282 6.48943 -3.84179 -2.80712 -4.35654 -2.86861 -0.147767 -1.31657 0.118399 -3.53388 
300 4.40423 3.17648 -6.38994 -3.48671 -2.8592 -2.74098 -0.495714 -0.137238 0.784584 -3.53332 
301 2.26866 2.68143 -5.11651 -3.45002 -3.51006 -3.07186 -0.444747 -0.269798 0.28178 -3.52979 
302 2.23492 2.70896 -2.56315 -3.42805 -3.52079 -3.07581 -0.444056 -0.274717 0.274978 -3.5298 
303 2.40679 4.86997 -3.84046 -2.77065 -3.54801 -2.75161 -0.387385 -0.75916 0.0711111 -3.53335 
304 4.36448 3.2299 -3.83661 -3.46293 -2.86807 -2.74773 -0.504666 -0.152073 0.778398 -3.53333 
305 0.264272 4.32318 -2.56611 -3.4185 -4.74764 -3.30165 -0.124066 -0.879181 0.0695175 -3.53372 
306 0.359523 6.49444 -1.28891 -2.79656 -4.35804 -2.86886 -0.126661 -1.31692 0.0918126 -3.53389 
307 2.34657 4.89898 -1.28726 -2.75271 -3.55757 -2.75196 -0.377223 -0.760978 0.0556873 -3.53336 
308 4.32407 3.28278 -1.2834 -3.4413 -2.88024 -2.74841 -0.511478 -0.166242 0.772595 -3.53333 
309 2.43059 7.09091 -0.0104427 -2.22338 -3.36244 -2.41953 -0.335591 -1.17384 -0.159181 -3.53293 
310 0.428622 8.66904 -0.011874 -2.25932 -4.0393 -2.50248 -0.124177 -1.7123 0.100835 -3.53363 
311 0.322551 8.67353 2.54072 -2.25557 -4.04322 -2.49689 -0.100835 -1.71364 0.0663276 -3.53362 