ITEM: TIMESTEP
0
ITEM: NUMBER OF ATOMS
37664
ITEM: BOX BOUNDS ff ff ff
-100 100
-100 100
-156.15 156.15
ITEM: ATOMS id x y z v_peratom_sxx v_peratom_syy v_peratom_szz v_peratom_sxy v_peratom_sxz v_peratom_syz c_atomPE 
1 -0.00529742 -0.000385909 -0.0101151 -5.18803 -5.17483 -9.53945 -0.0242806 0.148421 -0.0541928 -3.51528 
2 -0.00620501 -0.00027403 2.54326 -5.17782 -5.17022 -9.5263 -0.0244231 0.148508 -0.052787 -3.51534 
3 -0.00706678 -0.000165929 5.09688 -5.1635 -5.16147 -9.50408 -0.0239278 0.146711 -0.050573 -3.51544 
4 -0.00787615 -5.43584e-05 7.6508 -5.14496 -5.14836 -9.46978 -0.0231946 0.143676 -0.0480904 -3.51559 
5 -0.00863066 6.19943e-05 10.2053 -5.12179 -5.1312 -9.42641 -0.0220131 0.139536 -0.0450789 -3.51579 
6 -0.00931251 0.000212534 12.7603 -5.09194 -5.10524 -9.3671 -0.0215011 0.134565 -0.0417121 -3.51607 
7 -0.00990776 0.000395606 15.3164 -5.05565 -5.07441 -9.28975 -0.0197408 0.129335 -0.0374794 -3.51641 
8 -0.0103768 0.000617185 17.8734 -5.0078 -5.03246 -9.19484 -0.0187263 0.124843 -0.0322846 -3.51685 
9 -0.0107137 0.000886836 20.4319 -4.9507 -4.97849 -9.07374 -0.017834 0.120775 -0.0269838 -3.51738 
10 -0.0109011 0.00119072 22.9922 -4.87414 -4.90707 -8.91997 -0.016473 0.116437 -0.0224165 -3.51807 
11 -0.0109331 0.00150445 25.5546 -4.77527 -4.81243 -8.72638 -0.0156731 0.112671 -0.0181374 -3.51892 
12 -0.0108012 0.0018129 28.1197 -4.64833 -4.68866 -8.49041 -0.0144451 0.109154 -0.0142081 -3.51995 
13 -0.0105075 0.00208695 30.6877 -4.48682 -4.53087 -8.21535 -0.0146586 0.105776 -0.012662 -3.52112 
14 -0.0100414 0.00228232 33.259 -4.2885 -4.33469 -7.9059 -0.0135752 0.102552 -0.0125287 -3.52241 
15 -0.0093859 0.00237587 35.8334 -4.06398 -4.11093 -7.58131 -0.0130091 0.100118 -0.0139033 -3.52365 
16 -0.00852954 0.00236155 38.4105 -3.82579 -3.87308 -7.25558 -0.0128565 0.0983908 -0.0167381 -3.52475 
17 -0.00742475 0.00220879 40.9902 -3.58794 -3.6342 -6.93864 -0.0113549 0.098017 -0.0201403 -3.52562 
18 -0.00600065 0.00188257 43.572 -3.34909 -3.39316 -6.61836 -0.0103214 0.0995471 -0.0244891 -3.52634 
19 -0.00415395 0.00135857 46.1562 -3.08751 -3.12645 -6.2574 -0.00914793 0.104313 -0.0295657 -3.52707 
20 -0.00175506 0.000570451 48.7432 -2.71363 -2.73547 -5.82348 -0.0044303 0.110702 -0.0358446 -3.52795 
21 5.95933e-07 -4.11185e-08 51.3317 -1.92245 -1.92078 -4.90857 0.000260676 -0.00583399 0.00190012 -3.53202 
22 4.01304e-07 -1.42881e-06 53.9138 -0.852468 -0.852505 -8.91768 -3.73365e-06 -6.38763e-05 -6.90713e-05 -3.48168 
23 8.71386e-07 -1.98378e-06 56.3885 1.68539 1.68541 1.87612 -4.5972e-05 5.63561e-05 4.49556e-06 -2.55581 
24 -1.23087e-07 -1.12453e-06 -53.8876 -2.60588 -2.60593 -6.54942 -2.50118e-05 2.66588e-05 -5.61816e-05 -3.40183 
25 1.02659e-07 -1.55837e-06 -51.3239 -2.08024 -2.08312 -5.61033 -0.000368372 -0.00770443 0.00314707 -3.52878 
26 0.00211283 -0.000851398 -48.7472 -2.79261 -2.76208 -6.26047 0.00197598 0.132087 -0.0532881 -3.52599 
27 0.0047155 -0.00195251 -46.1666 -3.13124 -3.08563 -6.47103 0.00321588 0.114524 -0.0496221 -3.5264 
28 0.00621878 -0.00277575 -43.5853 -3.41002 -3.35862 -6.7267 0.0050358 0.106089 -0.043945 -3.52597 
29 0.00700224 -0.00337917 -41.0048 -3.65815 -3.60646 -7.0068 0.0055111 0.104015 -0.0373664 -3.52539 
30 0.00732648 -0.00380322 -38.426 -3.9018 -3.84877 -7.30717 0.00691993 0.104245 -0.0310358 -3.52459 
31 0.00736271 -0.00405182 -35.8493 -4.14258 -4.08749 -7.62168 0.0068882 0.104776 -0.0261746 -3.52355 
32 0.00718837 -0.00413372 -33.2752 -4.36904 -4.31432 -7.94165 0.0073579 0.104761 -0.0224511 -3.52235 
33 0.00682738 -0.00404822 -30.704 -4.57448 -4.51522 -8.2544 0.00588651 0.102825 -0.0209407 -3.52108 
34 0.00628815 -0.0038047 -28.1361 -4.74407 -4.68444 -8.53701 0.00480724 0.100725 -0.0217796 -3.51987 
35 0.00556866 -0.00344562 -25.5711 -4.88073 -4.81863 -8.78243 0.00181435 0.0991856 -0.0245191 -3.51879 
36 0.00468258 -0.00302251 -23.0088 -4.98372 -4.92286 -8.98835 -0.00239865 0.0988078 -0.029429 -3.51787 
37 0.00364628 -0.00257847 -20.4489 -5.05885 -4.99989 -9.14871 -0.00677646 0.10154 -0.0353693 -3.51714 
38 0.00250717 -0.00215051 -17.8909 -5.11126 -5.05669 -9.27287 -0.0101755 0.107828 -0.0418464 -3.51656 
39 0.00131044 -0.00175601 -15.3343 -5.14944 -5.09957 -9.36914 -0.014409 0.11498 -0.0470679 -3.51611 
40 9.7404e-05 -0.00140704 -12.779 -5.17392 -5.13024 -9.4393 -0.0178111 0.12232 -0.0509049 -3.51578 
41 -0.00109008 -0.00111572 -10.2244 -5.18803 -5.15087 -9.48768 -0.0202775 0.130364 -0.0538595 -3.51555 
42 -0.00223249 -0.000878767 -7.67044 -5.19558 -5.16439 -9.51803 -0.0218388 0.137113 -0.0554794 -3.5154 
43 -0.00331636 -0.000687 -5.11682 -5.19764 -5.17261 -9.53635 -0.023165 0.142854 -0.0557551 -3.51531 
44 -0.00433697 -0.000521464 -2.56345 -5.19517 -5.17593 -9.54338 -0.0238984 0.146593 -0.0552499 -3.51527 
45 0.0899397 2.15966 1.26621 -4.06353 -5.13831 -3.83469 -0.0750355 -0.39764 0.00755227 -3.52911 
46 0.0629257 2.16071 3.81961 -4.05585 -5.13644 -3.82142 -0.0602291 -0.397463 -0.00194343 -3.52913 
47 0.03597 2.1614 6.3733 -4.05075 -5.13455 -3.80036 -0.0452655 -0.397881 -0.0114217 -3.52914 
48 0.00906498 2.16178 8.92738 -4.04754 -5.12757 -3.77155 -0.0301594 -0.398781 -0.0215871 -3.52917 
49 -0.0177678 2.16182 11.482 -4.04498 -5.12135 -3.73071 -0.0150586 -0.399581 -0.0317287 -3.5292 
50 -0.0445005 2.16156 14.0374 -4.04647 -5.1072 -3.67724 -2.46205e-06 -0.400485 -0.0431913 -3.52925 
51 -0.0711073 2.16099 16.5938 -4.04701 -5.09119 -3.61108 0.0139749 -0.401431 -0.0565321 -3.5293 
52 -0.0975365 2.16013 19.1514 -4.05063 -5.06657 -3.52607 0.0273785 -0.402008 -0.0706992 -3.52937 
53 -0.123772 2.15897 21.7106 -4.0538 -5.03391 -3.41815 0.0386845 -0.402444 -0.0869899 -3.52946 
54 -0.149815 2.15752 24.2717 -4.05625 -4.98686 -3.28233 0.0483641 -0.402906 -0.10622 -3.52957 
55 -0.175637 2.15579 26.8352 -4.04789 -4.91919 -3.1144 0.0554697 -0.402588 -0.127962 -3.52972 
56 -0.201217 2.15383 29.4014 -4.02654 -4.82302 -2.91351 0.0595334 -0.401528 -0.149837 -3.52992 
57 -0.226542 2.15169 31.9708 -3.97499 -4.69355 -2.68009 0.06155 -0.399435 -0.169238 -3.53019 
58 -0.251572 2.14945 34.5434 -3.88132 -4.52105 -2.42363 0.0616928 -0.396461 -0.182002 -3.53054 
59 -0.276258 2.14712 37.1192 -3.74337 -4.31541 -2.15717 0.0614705 -0.391859 -0.187262 -3.53094 
60 -0.300511 2.14464 39.6976 -3.5646 -4.08655 -1.89086 0.0622177 -0.384973 -0.192298 -3.53136 
61 -0.324261 2.14189 42.2783 -3.36087 -3.85041 -1.62876 0.0655603 -0.375832 -0.202182 -3.53171 
62 -0.34746 2.13876 44.861 -3.14129 -3.59776 -1.35627 0.0687437 -0.364272 -0.223023 -3.53199 
63 -0.370095 2.13546 47.4458 -2.87566 -3.2834 -1.06809 0.0696758 -0.349681 -0.247577 -3.53227 
64 -0.392512 2.13371 50.032 -2.40762 -2.79908 -0.467427 0.0452229 -0.3899 -0.214904 -3.53327 
65 -0.418483 2.1304 52.6263 -1.76586 -2.00483 -0.560837 0.045427 -0.308808 -0.730207 -3.52455 
66 -0.44812 2.14653 55.1778 6.97703 7.73858 2.43065 0.03312 -0.59728 1.77001 -3.02528 
67 0.649859 2.05055 -55.162 1.38971 0.842735 -0.677449 -0.188223 -0.0991813 1.2078 -3.26036 
68 0.633027 2.08274 -52.6122 -1.11313 -2.21925 -0.458182 -0.374667 -0.489027 -0.16162 -3.53569 
69 0.607028 2.08678 -50.0319 -2.01382 -2.59834 -0.921198 -0.146228 -0.402312 0.078091 -3.53404 
70 0.584749 2.08788 -47.4543 -2.72079 -3.11192 -1.30037 -0.129671 -0.347611 0.153287 -3.53286 
71 0.562317 2.09106 -44.8732 -3.15566 -3.47779 -1.45758 -0.106831 -0.353287 0.198 -3.53218 
72 0.539117 2.09507 -42.2922 -3.4598 -3.75807 -1.68105 -0.0944136 -0.363011 0.211957 -3.53173 
73 0.515188 2.09939 -39.7124 -3.70554 -4.01129 -1.9268 -0.0913417 -0.372895 0.220259 -3.53129 
74 0.490617 2.10391 -37.1345 -3.90964 -4.24381 -2.18502 -0.0938455 -0.382338 0.22765 -3.53085 
75 0.465508 2.10863 -34.5591 -4.06767 -4.45328 -2.44878 -0.101746 -0.390134 0.22936 -3.53042 
76 0.439947 2.11358 -31.9867 -4.17728 -4.63064 -2.70682 -0.113843 -0.396966 0.223045 -3.53005 
77 0.413987 2.11867 -29.4175 -4.23913 -4.77176 -2.94365 -0.127038 -0.402996 0.20785 -3.52975 
78 0.387679 2.1238 -26.8515 -4.26342 -4.87412 -3.1513 -0.139014 -0.407906 0.186195 -3.52955 
79 0.361068 2.12882 -24.2884 -4.26084 -4.95137 -3.32752 -0.148429 -0.410978 0.161595 -3.5294 
80 0.334219 2.13358 -21.7278 -4.24291 -5.0058 -3.46934 -0.153785 -0.411213 0.137687 -3.5293 
81 0.307194 2.13802 -19.1692 -4.21605 -5.04452 -3.57889 -0.15559 -0.410114 0.114897 -3.52924 
82 0.280058 2.14208 -16.6122 -4.18861 -5.07338 -3.66291 -0.152919 -0.408629 0.0945712 -3.52919 
83 0.252854 2.14575 -14.0564 -4.16204 -5.09451 -3.72745 -0.147029 -0.406548 0.0767591 -3.52916 
84 0.225624 2.14904 -11.5016 -4.13923 -5.11018 -3.77462 -0.138302 -0.403899 0.0622138 -3.52913 
85 0.198408 2.1519 -8.94745 -4.11727 -5.12217 -3.80553 -0.128285 -0.401932 0.048845 -3.52911 
86 0.171225 2.1544 -6.39375 -4.09964 -5.12923 -3.82652 -0.116045 -0.400093 0.0372576 -3.52911 
87 0.144096 2.15651 -3.84035 -4.08497 -5.13504 -3.83739 -0.103254 -0.398584 0.0269017 -3.5291 
88 0.117002 2.15827 -1.28707 -4.07301 -5.13715 -3.83972 -0.0893896 -0.397934 0.0171824 -3.5291 
89 0.212452 4.32632 -0.0102569 -3.40055 -4.74847 -3.30103 -0.0982892 -0.887869 0.050018 -3.53371 
90 0.281791 6.49853 1.26655 -2.78434 -4.3574 -2.86523 -0.0980955 -1.32373 0.0634328 -3.53388 
91 2.20251 2.73637 -0.00776723 -3.40051 -3.53615 -3.06947 -0.436106 -0.287996 0.265761 -3.52982 
92 2.16837 2.76295 2.54552 -3.38364 -3.54912 -3.06144 -0.432049 -0.293684 0.258459 -3.52982 
93 2.28798 4.92751 1.26801 -2.732 -3.57022 -2.7435 -0.360317 -0.769365 0.0363627 -3.53337 
94 4.2849 3.33561 1.27135 -3.41386 -2.89654 -2.74065 -0.511884 -0.185159 0.766951 -3.53335 
95 0.159206 4.32864 2.54289 -3.39439 -4.7501 -3.29386 -0.0797923 -0.888125 0.0317579 -3.53372 
96 0.106017 4.33025 5.09623 -3.39207 -4.75185 -3.28028 -0.0607077 -0.888482 0.0129798 -3.53372 
97 0.202298 6.50141 3.81951 -2.78166 -4.36083 -2.85721 -0.0768593 -1.32466 0.0368434 -3.53388 
98 2.22734 4.95483 3.82125 -2.72086 -3.582 -2.73339 -0.346889 -0.771775 0.0204485 -3.53337 
99 0.122866 6.50323 6.37267 -2.78379 -4.36527 -2.84454 -0.055687 -1.32584 0.00983402 -3.53387 
100 4.24339 3.38732 3.82458 -3.39696 -2.91327 -2.73055 -0.514582 -0.199859 0.760726 -3.53335 
101 2.13394 2.78904 5.09898 -3.36859 -3.56313 -3.04646 -0.42603 -0.299656 0.250892 -3.52982 
102 2.09922 2.81464 7.65276 -3.35555 -3.5786 -3.0249 -0.418245 -0.306581 0.243091 -3.52982 
103 2.16641 4.98128 6.37472 -2.71276 -3.59503 -2.71742 -0.331941 -0.774659 0.00385433 -3.53337 
104 4.20125 3.43843 6.37802 -3.38185 -2.93257 -2.71428 -0.515131 -0.214765 0.754392 -3.53336 
105 0.0528844 4.33117 7.64988 -3.39356 -4.75345 -3.26054 -0.0417606 -0.889419 -0.0061234 -3.53372 
106 -0.000182985 4.33142 10.204 -3.39949 -4.75498 -3.23402 -0.022222 -0.890719 -0.026626 -3.53371 
107 0.0435055 6.50401 8.92619 -2.79037 -4.37171 -2.82641 -0.033907 -1.32734 -0.0182096 -3.53385 
108 2.10519 5.00689 8.92855 -2.70855 -3.60951 -2.69519 -0.31523 -0.778508 -0.0136651 -3.53337 
109 -0.0357512 6.50372 11.4802 -2.80246 -4.37889 -2.80282 -0.012405 -1.32974 -0.0480966 -3.53382 
110 4.15847 3.48894 8.93182 -3.36893 -2.95504 -2.69135 -0.513493 -0.230833 0.748088 -3.53336 
111 2.06421 2.83978 10.207 -3.34507 -3.59424 -2.99429 -0.40876 -0.314263 0.233911 -3.52981 
112 2.02894 2.86442 12.7618 -3.33568 -3.61105 -2.95446 -0.396719 -0.322293 0.224594 -3.5298 
113 2.04369 5.03163 11.4829 -2.70802 -3.62546 -2.66345 -0.296379 -0.78286 -0.0331929 -3.53336 
114 4.11505 3.53884 11.4861 -3.35851 -2.9778 -2.66027 -0.509191 -0.247821 0.740105 -3.53336 
115 -0.0531327 4.33098 12.7587 -3.40793 -4.75449 -3.19682 -0.00296533 -0.89153 -0.0479464 -3.53372 
116 -0.105947 4.32987 15.3142 -3.4239 -4.75397 -3.15123 0.0158592 -0.893006 -0.0722816 -3.53371 
117 -0.114855 6.50238 14.0348 -2.81976 -4.38761 -2.77106 0.0094419 -1.33233 -0.0801362 -3.53379 
118 1.98198 5.05547 14.0379 -2.71118 -3.64174 -2.6244 -0.275698 -0.788033 -0.0546728 -3.53335 
119 -0.193773 6.5 16.5902 -2.84174 -4.39682 -2.72914 0.0306438 -1.33434 -0.115399 -3.53376 
120 4.07104 3.58806 14.0411 -3.35095 -3.00523 -2.61987 -0.501962 -0.266181 0.730929 -3.53336 
121 1.99343 2.88856 15.3175 -3.32905 -3.62883 -2.90414 -0.382756 -0.332062 0.213653 -3.52979 
122 1.95771 2.91217 17.8743 -3.32517 -3.64356 -2.8374 -0.366752 -0.342428 0.20005 -3.52978 
123 1.92006 5.0784 16.5938 -2.71955 -3.65803 -2.57484 -0.253153 -0.793773 -0.0782689 -3.53334 
124 4.02644 3.63661 16.5969 -3.34695 -3.03476 -2.56896 -0.4921 -0.286307 0.720463 -3.53335 
125 -0.158578 4.3281 17.8708 -3.44253 -4.75092 -3.09088 0.0339806 -0.894329 -0.098641 -3.53371 
126 -0.210968 4.32565 20.4286 -3.46721 -4.74598 -3.01503 0.051281 -0.894976 -0.128797 -3.5337 
127 -0.27244 6.49655 19.1467 -2.87306 -4.40683 -2.6795 0.0508548 -1.33692 -0.154983 -3.53369 
128 1.85797 5.10038 19.1509 -2.73242 -3.67448 -2.50843 -0.228428 -0.801064 -0.10569 -3.53333 
129 -0.350806 6.49204 21.7045 -2.90969 -4.41577 -2.61239 0.0701995 -1.33933 -0.198385 -3.53364 
130 3.9813 3.68441 19.1539 -3.34482 -3.06599 -2.50285 -0.478237 -0.309226 0.707662 -3.53334 
131 1.92182 2.93522 20.4324 -3.3222 -3.65879 -2.75428 -0.347582 -0.354174 0.185072 -3.52975 
132 1.88576 2.95771 22.9922 -3.32133 -3.66936 -2.65228 -0.326332 -0.368408 0.167187 -3.52971 
133 1.79577 5.12137 21.7094 -2.75227 -3.68858 -2.42802 -0.202264 -0.810699 -0.13747 -3.53331 
134 3.93563 3.73144 21.7123 -3.34569 -3.09922 -2.42088 -0.460277 -0.335026 0.691512 -3.53332 
135 -0.263109 4.32256 22.9881 -3.49658 -4.73255 -2.91919 0.0665686 -0.895342 -0.162757 -3.5337 
136 -0.31498 4.31883 25.5496 -3.52681 -4.70906 -2.79774 0.0801611 -0.895661 -0.200331 -3.53371 
137 -0.428835 6.48651 24.2639 -2.95286 -4.42031 -2.52454 0.0881347 -1.34119 -0.248061 -3.53357 
138 1.73347 5.14138 24.2697 -2.77451 -3.69933 -2.32778 -0.173349 -0.822689 -0.17403 -3.53327 
139 -0.50649 6.48002 26.8254 -2.99878 -4.41528 -2.41361 0.104634 -1.34202 -0.300887 -3.53352 
140 3.88944 3.77767 24.2724 -3.3491 -3.12988 -2.32115 -0.438934 -0.364228 0.6707 -3.53329 
141 1.84957 2.97963 25.5541 -3.31714 -3.67164 -2.52331 -0.302255 -0.384828 0.145318 -3.52967 
142 1.81332 3.00099 28.1185 -3.30557 -3.65943 -2.36596 -0.276161 -0.402263 0.121321 -3.52962 
143 1.6711 5.16042 26.8321 -2.79858 -3.69981 -2.20125 -0.143427 -0.836015 -0.214219 -3.53324 
144 3.8428 3.82308 26.8347 -3.34876 -3.15653 -2.19569 -0.413301 -0.396898 0.646227 -3.53325 
145 -0.366536 4.31456 28.1135 -3.55371 -4.66836 -2.64425 0.0912892 -0.894181 -0.239628 -3.53375 
146 -0.41775 4.30987 30.6804 -3.56602 -4.59889 -2.4575 0.0990366 -0.891425 -0.278789 -3.53384 
147 -0.58371 6.47273 29.3894 -3.04301 -4.39252 -2.27028 0.118699 -1.3411 -0.355616 -3.53349 
148 1.60876 5.1786 29.3971 -2.817 -3.68675 -2.04736 -0.112593 -0.850678 -0.256461 -3.53319 
149 -0.660456 6.4649 31.9565 -3.07343 -4.34335 -2.09287 0.129608 -1.33809 -0.40844 -3.53352 
150 3.79585 3.86771 29.3996 -3.3429 -3.17281 -2.04271 -0.38542 -0.431896 0.618543 -3.53319 
151 1.77708 3.02191 30.6858 -3.27692 -3.62535 -2.17988 -0.249141 -0.41876 0.0973986 -3.52957 
152 1.74105 3.04249 33.2564 -3.22046 -3.55696 -1.9638 -0.224497 -0.431145 0.0772239 -3.52956 
153 1.54657 5.19613 31.9652 -2.82329 -3.64974 -1.8666 -0.084687 -0.865125 -0.296349 -3.53313 
154 3.74878 3.91169 31.9675 -3.31875 -3.16693 -1.86399 -0.356642 -0.464432 0.58975 -3.53314 
155 -0.468588 4.30495 33.2506 -3.5497 -4.49232 -2.24035 0.103371 -0.887559 -0.311278 -3.53401 
156 -0.51899 4.3 35.8241 -3.48769 -4.33691 -1.99707 0.104587 -0.882227 -0.333134 -3.53428 
157 -0.736675 6.45689 34.5269 -3.07284 -4.24645 -1.87811 0.136609 -1.33307 -0.450094 -3.53366 
158 1.48471 5.21332 34.5365 -2.79886 -3.57616 -1.66049 -0.0613753 -0.874711 -0.327359 -3.53311 
159 -0.812294 6.44907 37.101 -3.02072 -4.09215 -1.63776 0.140294 -1.32393 -0.476957 -3.53392 
160 3.70192 3.95523 34.5386 -3.26405 -3.12769 -1.65829 -0.330892 -0.490047 0.564404 -3.5331 
161 1.70539 3.06296 35.8302 -3.11963 -3.44528 -1.72807 -0.203355 -0.435876 0.0651144 -3.52963 
162 1.67029 3.0834 38.4071 -2.97082 -3.28538 -1.48148 -0.188471 -0.432087 0.0612357 -3.5298 
163 1.42344 5.23059 37.1112 -2.7243 -3.45337 -1.4306 -0.0451927 -0.875106 -0.342872 -3.53317 
164 3.65564 3.99862 37.1131 -3.15984 -3.03643 -1.42985 -0.311471 -0.503135 0.548212 -3.53317 
165 -0.568861 4.29506 38.4008 -3.36985 -4.13579 -1.74547 0.105299 -0.872692 -0.345909 -3.53463 
166 -0.618063 4.28996 40.9801 -3.20584 -3.90614 -1.49923 0.105505 -0.858911 -0.358873 -3.53497 
167 -0.887178 6.4415 39.6782 -2.9064 -3.87857 -1.39203 0.13976 -1.30897 -0.491857 -3.53429 
168 1.36298 5.24808 39.6889 -2.59235 -3.27843 -1.19384 -0.0377903 -0.863794 -0.345937 -3.53335 
169 -0.961179 6.4339 42.2578 -2.73811 -3.62483 -1.15893 0.138394 -1.28874 -0.506567 -3.53465 
170 3.6102 4.04198 39.6906 -2.99671 -2.89257 -1.19545 -0.298105 -0.504457 0.540804 -3.53334 
171 1.63579 3.10371 40.9865 -2.78338 -3.09059 -1.22988 -0.17783 -0.425896 0.0573937 -3.53003 
172 1.60185 3.12376 43.568 -2.56594 -2.86359 -0.974038 -0.16938 -0.422485 0.0454726 -3.53031 
173 1.30346 5.26566 42.2688 -2.4095 -3.05783 -0.959368 -0.0366999 -0.847565 -0.351825 -3.5336 
174 3.56557 4.08525 42.2703 -2.78201 -2.70096 -0.961741 -0.289248 -0.50423 0.530487 -3.53359 
175 -0.666538 4.28451 43.5612 -3.00653 -3.65732 -1.25391 0.108168 -0.842015 -0.379675 -3.53527 
176 -0.714366 4.27867 46.1439 -2.78537 -3.38458 -0.990324 0.110364 -0.822471 -0.415791 -3.53553 
177 -1.03432 6.42609 44.8387 -2.52498 -3.33705 -0.943307 0.137231 -1.26574 -0.526524 -3.53499 
178 1.24475 5.28318 44.8504 -2.18038 -2.7987 -0.726343 -0.0390174 -0.834783 -0.37144 -3.53392 
179 -1.1069 6.41837 47.42 -2.26951 -3.00641 -0.754237 0.136757 -1.24301 -0.543994 -3.53533 
180 3.52162 4.12834 44.8516 -2.52395 -2.47185 -0.73772 -0.283331 -0.510693 0.508714 -3.53389 
181 1.56834 3.14353 46.1512 -2.32662 -2.61067 -0.697761 -0.163291 -0.42882 0.0173327 -3.53057 
182 1.53529 3.16346 48.7362 -2.06424 -2.3482 -0.327534 -0.176232 -0.445103 -0.0197185 -3.53021 
183 1.18648 5.30066 47.4327 -1.91804 -2.49654 -0.494396 -0.0570451 -0.838036 -0.416564 -3.53417 
184 3.47813 4.17131 47.4336 -2.21791 -2.21371 -0.529584 -0.281048 -0.533664 0.464595 -3.53409 
185 -0.761819 4.27348 48.7282 -2.57556 -3.05668 -0.641825 0.101487 -0.800151 -0.426012 -3.53524 
186 -0.811621 4.26877 51.3169 -1.98861 -2.34959 0.320073 0.0838242 -0.845373 -0.653019 -3.53802 
187 -1.17889 6.41384 50.0002 -2.03902 -2.54076 -0.318099 0.0720018 -1.25323 -0.623172 -3.53577 
188 1.12775 5.31799 50.0156 -1.56152 -2.0696 -0.00652992 -0.105026 -0.927529 -0.587973 -3.53488 
189 -1.25707 6.40546 52.5877 -1.61256 -2.48665 0.64347 0.176152 -1.31682 -0.612577 -3.53281 
190 3.43505 4.21346 50.0156 -1.75268 -1.84616 -0.0303183 -0.305475 -0.653158 0.317463 -3.53493 
191 1.50027 3.18358 51.3264 -1.43151 -1.70037 0.662192 -0.172646 -0.552021 -0.13244 -3.5327 
192 1.46587 3.20964 53.9052 0.0266152 0.95388 -0.796162 0.566244 -0.561132 0.138761 -3.37565 
193 1.06597 5.33731 52.6041 -1.24928 -1.89868 0.441194 -0.23708 -0.801191 -0.410687 -3.52778 
194 3.38747 4.26008 52.6041 -1.41009 -1.71401 0.389518 -0.390498 -0.639238 0.587613 -3.52745 
195 -0.866323 4.2769 53.8949 -0.050651 -0.206331 -1.18014 0.0794441 -1.26169 1.02744 -3.38132 
196 1.3298 4.1174 -56.3442 5.06948 2.90537 1.60233 -1.25486 -0.273873 0.110294 -2.79034 
197 -1.33605 6.40133 55.1665 4.17956 2.79774 1.28982 0.319843 -1.52329 0.198169 -3.26107 
198 1.00488 5.36129 55.1754 5.64269 6.63206 2.70807 0.370134 -0.636387 -0.0322553 -3.15047 
199 1.98371 6.26223 -55.1334 6.94007 9.1155 2.92954 0.134135 -0.847941 -0.525784 -3.02309 
200 3.34328 4.30996 55.1754 5.53073 7.35828 2.86941 0.118603 -0.278418 0.56285 -3.15115 
201 2.87095 2.09325 -56.362 4.04255 6.00652 1.88129 -3.16457 0.252777 0.341912 -2.79939 
202 2.84551 2.1252 -53.8874 0.165264 0.76344 -3.02659 -0.981993 -0.732785 -0.162326 -3.51266 
203 3.53831 4.21674 -55.1525 6.03169 6.27396 1.75912 0.302424 -1.21941 -0.0444621 -3.14331 
204 5.07312 2.13635 -55.1525 6.04997 7.03892 2.00293 0.446026 -0.528088 0.0806063 -3.14511 
205 1.29262 4.16451 -53.8815 0.861154 -0.347829 -3.67553 -0.408671 -0.573917 0.838989 -3.51412 
206 1.24176 4.17585 -51.3147 -1.28902 -1.91341 -0.391412 -0.214944 -0.884829 0.219589 -3.53911 
207 1.90264 6.26187 -52.5941 -0.918787 -1.45696 -0.572988 -0.18423 -1.16818 0.819968 -3.52794 
208 3.4607 4.22944 -52.6036 -0.750137 -0.926398 0.0943991 -0.677594 -0.496438 0.191095 -3.53021 
209 1.82403 6.27282 -50.0101 -1.64885 -2.35261 -0.293901 -0.183931 -1.2526 0.435987 -3.53682 
210 5.01221 2.17771 -52.6036 -1.3428 -0.349316 0.0535856 -0.502685 0.0189037 0.991357 -3.52954 
211 2.80522 2.14769 -51.32 -1.10516 -0.949169 -0.134968 -0.278961 -0.337608 0.263142 -3.53419 
212 2.77368 2.17433 -48.7411 -2.01981 -1.86224 -0.609163 -0.296857 -0.153864 0.355983 -3.53083 
213 3.40036 4.25787 -50.02 -1.45456 -1.67473 -0.182853 -0.415038 -0.677216 0.297882 -3.53491 
214 4.971 2.23184 -50.02 -1.87102 -1.2881 -0.151316 -0.29923 0.0505841 0.840663 -3.53495 
215 1.1913 4.18037 -48.736 -2.2365 -2.78985 -0.847785 -0.187246 -0.792721 0.285973 -3.5364 
216 1.14418 4.18621 -46.1553 -2.71719 -3.21728 -1.04703 -0.170794 -0.794546 0.403521 -3.53605 
217 1.75167 6.27877 -47.4313 -2.16104 -2.85226 -0.738521 -0.221832 -1.20777 0.550826 -3.53591 
218 3.34773 4.28725 -47.4421 -1.94122 -2.21554 -0.63045 -0.303456 -0.590195 0.353341 -3.53419 
219 1.6797 6.29047 -44.8509 -2.5472 -3.20826 -0.926 -0.210744 -1.21734 0.608002 -3.53535 
220 4.93728 2.28396 -47.4412 -2.3653 -1.79458 -0.59943 -0.211914 0.153192 0.87013 -3.53421 
221 2.74604 2.20121 -46.1606 -2.43954 -2.27602 -0.807013 -0.232495 -0.112226 0.403821 -3.53075 
222 2.71936 2.22951 -43.5794 -2.76439 -2.59105 -1.0206 -0.215411 -0.11119 0.421763 -3.53036 
223 3.2962 4.31921 -44.862 -2.30254 -2.57435 -0.781005 -0.263983 -0.588407 0.385381 -3.53393 
224 4.90622 2.33664 -44.8608 -2.72764 -2.14403 -0.775308 -0.176253 0.179009 0.899728 -3.5339 
225 1.0968 4.19448 -43.5742 -3.06642 -3.53284 -1.27286 -0.156836 -0.809252 0.428991 -3.53552 
226 1.04866 4.2035 -40.9938 -3.33357 -3.80319 -1.5119 -0.153265 -0.827946 0.436664 -3.53507 
227 1.60729 6.30381 -42.2705 -2.83983 -3.51038 -1.1511 -0.211143 -1.24069 0.624152 -3.53484 
228 3.24493 4.35267 -42.2816 -2.58667 -2.86572 -0.98403 -0.247424 -0.598732 0.400814 -3.53359 
229 1.53388 6.31787 -39.6914 -3.05474 -3.77477 -1.39159 -0.219443 -1.2647 0.629111 -3.53438 
230 4.87607 2.39033 -42.2803 -3.02272 -2.42057 -0.982319 -0.16515 0.182791 0.923199 -3.53356 
231 2.69255 2.25863 -40.9989 -3.02698 -2.84602 -1.25092 -0.211789 -0.115325 0.435316 -3.53004 
232 2.66534 2.28845 -38.4199 -3.24357 -3.05729 -1.49255 -0.216358 -0.118701 0.447361 -3.52978 
233 3.19336 4.38725 -39.7022 -2.80956 -3.09975 -1.2087 -0.242273 -0.6092 0.410356 -3.53331 
234 4.84599 2.44507 -39.7008 -3.26469 -2.63233 -1.20827 -0.165768 0.182854 0.944881 -3.53329 
235 0.999623 4.21286 -38.4151 -3.53781 -4.0441 -1.76014 -0.157655 -0.844775 0.440517 -3.53464 
236 0.949708 4.22257 -35.8388 -3.68024 -4.25063 -2.01062 -0.169091 -0.859421 0.436955 -3.53425 
237 1.45934 6.33253 -37.1145 -3.19792 -3.99423 -1.64229 -0.232661 -1.28455 0.625329 -3.53397 
238 3.14131 4.42286 -37.1248 -2.97365 -3.2794 -1.44351 -0.247325 -0.6198 0.413152 -3.53311 
239 1.3838 6.34779 -34.5407 -3.27048 -4.16042 -1.88632 -0.24651 -1.30102 0.608172 -3.53365 
240 4.8158 2.50088 -37.1233 -3.45559 -2.78476 -1.43958 -0.177356 0.179627 0.959722 -3.53309 
241 2.63775 2.31893 -35.8433 -3.41323 -3.22237 -1.73464 -0.228729 -0.123564 0.454136 -3.52959 
242 2.60982 2.35 -33.2695 -3.53555 -3.33783 -1.97123 -0.249016 -0.133799 0.451209 -3.5295 
243 3.08878 4.45939 -34.5503 -3.07618 -3.4008 -1.67204 -0.260943 -0.635173 0.401712 -3.53302 
244 4.7855 2.55763 -34.5486 -3.58639 -2.87742 -1.6666 -0.199029 0.166291 0.960855 -3.533 
245 0.899061 4.23261 -33.2655 -3.75972 -4.41391 -2.25603 -0.182879 -0.871261 0.423335 -3.53395 
246 0.847791 4.2429 -30.6956 -3.78574 -4.53319 -2.48209 -0.19639 -0.879923 0.39756 -3.53375 
247 1.30741 6.36352 -31.9704 -3.27938 -4.27039 -2.1077 -0.258351 -1.31333 0.574039 -3.53347 
248 3.03571 4.49655 -31.979 -3.12355 -3.47341 -1.88389 -0.282346 -0.655291 0.37595 -3.53302 
249 1.23029 6.37936 -29.4037 -3.24631 -4.33399 -2.29667 -0.265116 -1.32128 0.528128 -3.53341 
250 4.75495 2.61506 -31.977 -3.66527 -2.92267 -1.87966 -0.230064 0.141029 0.949644 -3.53299 
251 2.58153 2.38148 -30.6989 -3.60848 -3.41284 -2.19288 -0.276006 -0.15013 0.438709 -3.52948 
252 2.55278 2.4131 -28.1314 -3.64169 -3.4524 -2.38917 -0.305396 -0.170641 0.418638 -3.52951 
253 2.98199 4.5339 -29.411 -3.12699 -3.51003 -2.07282 -0.307638 -0.677092 0.340229 -3.53307 
254 4.72395 2.6728 -29.4088 -3.70084 -2.93387 -2.06827 -0.266698 0.106477 0.929754 -3.53303 
255 0.796001 4.25319 -28.129 -3.77029 -4.61173 -2.67487 -0.207118 -0.886482 0.362444 -3.53365 
256 0.743763 4.26324 -25.5654 -3.73136 -4.66235 -2.83438 -0.213917 -0.890801 0.322359 -3.5336 
257 1.15257 6.39487 -26.84 -3.18914 -4.36578 -2.44755 -0.267582 -1.32561 0.474496 -3.53343 
258 2.92752 4.57104 -26.8461 -3.10162 -3.52713 -2.2347 -0.333673 -0.698264 0.300473 -3.53312 
259 1.07438 6.4097 -24.2791 -3.12189 -4.3774 -2.56678 -0.26496 -1.32719 0.419544 -3.53349 
260 4.69222 2.73055 -26.8437 -3.70483 -2.92604 -2.23023 -0.30491 0.0674246 0.905796 -3.53308 
261 2.52345 2.44463 -25.5671 -3.64683 -3.47389 -2.55725 -0.33548 -0.192404 0.39518 -3.52955 
262 2.49353 2.47588 -23.0053 -3.63271 -3.4812 -2.69262 -0.362479 -0.211593 0.372835 -3.5296 
263 2.87227 4.60764 -24.2839 -3.05943 -3.53137 -2.36603 -0.356262 -0.716082 0.261237 -3.53318 
264 4.6596 2.78806 -24.2813 -3.68901 -2.90956 -2.36325 -0.341456 0.0297597 0.882159 -3.53314 
265 0.691181 4.2728 -23.0045 -3.67903 -4.69388 -2.96182 -0.215946 -0.892385 0.281753 -3.5336 
266 0.638346 4.28172 -20.4456 -3.62612 -4.7117 -3.06165 -0.212724 -0.892551 0.243938 -3.53362 
267 0.995818 6.4236 -21.7204 -3.05567 -4.37876 -2.65616 -0.257656 -1.32699 0.367328 -3.53356 
268 2.81628 4.64351 -21.7239 -3.01095 -3.53093 -2.47063 -0.374422 -0.730099 0.224874 -3.53323 
269 0.916981 6.43641 -19.1633 -2.99448 -4.37466 -2.72176 -0.246671 -1.3262 0.319454 -3.53364 
270 4.62602 2.84517 -21.7211 -3.66185 -2.89026 -2.46651 -0.374561 -0.00582398 0.860204 -3.53319 
271 2.46302 2.50672 -20.4457 -3.60616 -3.48398 -2.80064 -0.384862 -0.22701 0.352636 -3.52966 
272 2.43194 2.53711 -17.8879 -3.57728 -3.48478 -2.88481 -0.403146 -0.240044 0.334825 -3.5297 
273 2.75961 4.67853 -19.1658 -2.96248 -3.52878 -2.55227 -0.387352 -0.740487 0.192752 -3.53327 
274 4.59147 2.90181 -19.1628 -3.62978 -2.87625 -2.55106 -0.403551 -0.0372698 0.841231 -3.53322 
275 0.585329 4.28991 -17.8884 -3.57595 -4.72327 -3.13837 -0.20552 -0.89212 0.210161 -3.53363 
276 0.532174 4.29736 -15.3326 -3.53203 -4.73012 -3.19412 -0.195538 -0.890977 0.180117 -3.53366 
277 0.837915 6.4481 -16.6075 -2.94362 -4.37021 -2.77289 -0.232935 -1.3254 0.276979 -3.53369 
278 2.7023 4.71267 -16.6092 -2.91736 -3.52899 -2.61562 -0.395598 -0.748007 0.164945 -3.53329 
279 0.758667 6.45863 -14.0527 -2.89902 -4.36337 -2.80826 -0.216582 -1.32432 0.238849 -3.53375 
280 4.55597 2.95794 -16.6061 -3.59519 -2.86427 -2.61576 -0.427992 -0.0644903 0.825382 -3.53325 
281 2.40036 2.56701 -15.3316 -3.54495 -3.48854 -2.94855 -0.417114 -0.250877 0.32034 -3.52973 
282 2.36831 2.59644 -12.7762 -3.5155 -3.49354 -2.99766 -0.427086 -0.258952 0.308418 -3.52975 
283 2.64442 4.74594 -14.0537 -2.87591 -3.52926 -2.66417 -0.399001 -0.754042 0.14046 -3.53331 
284 4.51956 3.01354 -14.0505 -3.56142 -2.85807 -2.66111 -0.448451 -0.0879213 0.812504 -3.53328 
285 0.478919 4.30403 -12.7777 -3.496 -4.73631 -3.23504 -0.182194 -0.889899 0.153263 -3.53367 
286 0.425624 4.30995 -10.2235 -3.4657 -4.73969 -3.26548 -0.167705 -0.889373 0.128744 -3.53369 
287 0.679305 6.46802 -11.4987 -2.86419 -4.36019 -2.83393 -0.198839 -1.32327 0.204257 -3.5338 
288 2.58603 4.77833 -11.499 -2.83991 -3.53348 -2.70009 -0.39877 -0.758119 0.119675 -3.53333 
289 0.599853 6.47629 -8.94517 -2.83659 -4.35766 -2.85165 -0.180053 -1.3229 0.172476 -3.53383 
290 4.4823 3.06859 -11.4958 -3.5312 -2.85586 -2.69711 -0.46582 -0.107545 0.801613 -3.53329 
291 2.33585 2.62538 -10.2218 -3.48778 -3.49929 -3.03177 -0.433782 -0.26584 0.297471 -3.52977 
292 2.30301 2.65384 -7.66786 -3.46231 -3.50668 -3.05301 -0.437334 -0.272038 0.288216 -3.52979 
293 2.52718 4.80985 -8.94508 -2.81058 -3.53859 -2.72415 -0.395526 -0.761186 0.100777 -3.53333 
294 4.44425 3.12311 -8.94181 -3.50214 -2.85785 -2.72156 -0.479553 -0.125485 0.79261 -3.53331 
295 0.372313 4.31511 -7.66982 -3.44179 -4.74303 -3.2862 -0.151157 -0.888464 0.107477 -3.53369 
296 0.319012 4.31956 -5.11649 -3.42343 -4.74521 -3.29722 -0.134131 -0.887945 0.0874544 -3.5337 
297 0.520358 6.48345 -6.39202 -2.816 -4.35558 -2.86266 -0.160115 -1.32279 0.143986 -3.53385 
298 2.46793 4.84051 -6.39153 -2.78484 -3.54413 -2.73827 -0.389627 -0.763142 0.0837917 -3.53335 
299 0.440838 6.48955 -3.8391 -2.80074 -4.35436 -2.86808 -0.139925 -1.32266 0.116378 -3.53387 
300 4.40545 3.17706 -6.38823 -3.47603 -2.86318 -2.73565 -0.490838 -0.141283 0.784889 -3.53333 
301 2.26984 2.68181 -5.11432 -3.43955 -3.51508 -3.06594 -0.438964 -0.277289 0.280155 -3.5298 
302 2.23634 2.70933 -2.561 -3.41898 -3.52489 -3.07115 -0.438487 -0.282453 0.273148 -3.52981 
303 2.40829 4.87035 -3.83826 -2.7636 -3.55122 -2.74612 -0.381741 -0.765239 0.0677475 -3.53336 
304 4.36595 3.23046 -3.83493 -3.45337 -2.8712 -2.74333 -0.499915 -0.156407 0.778472 -3.53333 
305 0.265725 4.32329 -2.56334 -3.40985 -4.74682 -3.30192 -0.116513 -0.8876 0.0687421 -3.53371 
306 0.361314 6.49457 -1.28628 -2.79066 -4.35541 -2.86917 -0.119297 -1.3231 0.0897454 -3.53387 
307 2.34831 4.89935 -1.28512 -2.74646 -3.56001 -2.74779 -0.371965 -0.767264 0.0520712 -3.53336 
308 4.32576 3.28332 -1.28178 -3.43291 -2.88255 -2.74505 -0.506968 -0.170814 0.772515 -3.53334 
309 2.43263 7.09133 -0.00836081 -2.21955 -3.36305 -2.41578 -0.330733 -1.17858 -0.163278 -3.53293 
310 0.430745 8.66924 -0.00940464 -2.25556 -4.03449 -2.50248 -0.117396 -1.71677 0.098257 -3.53362 
311 0.324884 8.67377 2.5431 -2.25231 -4.03798 -2.49753 -0.0946265 -1.71816 0.0639509 -3.53362 