ITEM: TIMESTEP
203
ITEM: NUMBER OF ATOMS
37664
ITEM: BOX BOUNDS ff ff ff
-100 100
-100 100
-156.15 156.15
ITEM: ATOMS id x y z v_peratom_sxx v_peratom_syy v_peratom_szz v_peratom_sxy v_peratom_sxz v_peratom_syz c_atomPE 
1 -0.0030066 -0.00112882 -0.00273713 -5.18276 -5.16862 -9.54394 -0.00250045 0.0200136 -0.0469665 -3.51524 
2 -0.00335903 -0.000953885 2.55043 -5.17827 -5.16615 -9.53743 -0.00360681 0.0222658 -0.0457811 -3.51527 
3 -0.00367511 -0.000769603 5.10373 -5.16966 -5.15978 -9.5208 -0.00469215 0.0244703 -0.044118 -3.51534 
4 -0.00395234 -0.000574371 7.65733 -5.15662 -5.14914 -9.4933 -0.00571862 0.0265303 -0.0419959 -3.51547 
5 -0.00418877 -0.000366919 10.2114 -5.13847 -5.1335 -9.45349 -0.00665253 0.0283721 -0.0394474 -3.51566 
6 -0.00438285 -0.000146696 12.7661 -5.11411 -5.11172 -9.39917 -0.00746777 0.0299511 -0.0365306 -3.51591 
7 -0.00453308 8.55186e-05 15.3216 -5.08191 -5.08214 -9.32726 -0.00814526 0.0312487 -0.0333365 -3.51624 
8 -0.00463769 0.000326978 17.8782 -5.03959 -5.0424 -9.23368 -0.00867142 0.0322653 -0.0299916 -3.51667 
9 -0.00469436 0.000572479 20.4363 -4.98397 -4.9893 -9.11337 -0.00903718 0.0330163 -0.0266545 -3.51722 
10 -0.00469995 0.000814195 22.9961 -4.91085 -4.91854 -8.96043 -0.00923863 0.0335322 -0.0235053 -3.51791 
11 -0.00465037 0.00104193 25.5581 -4.81481 -4.82464 -8.76889 -0.00927875 0.033863 -0.0207265 -3.51876 
12 -0.00454057 0.00124384 28.1227 -4.6895 -4.70118 -8.53441 -0.0091694 0.0340802 -0.0184775 -3.51978 
13 -0.00436459 0.00140753 30.6903 -4.52917 -4.54232 -8.25735 -0.00893121 0.0342729 -0.0168681 -3.52097 
14 -0.00411582 0.00152114 33.2612 -4.33233 -4.34653 -7.94645 -0.0085892 0.0345329 -0.015941 -3.52226 
15 -0.00378725 0.00157369 35.8352 -4.10694 -4.12174 -7.61925 -0.00816506 0.0349379 -0.0156839 -3.52353 
16 -0.00337171 0.00155446 38.4121 -3.8691 -3.88404 -7.29409 -0.00766949 0.0355265 -0.0160634 -3.52463 
17 -0.00286171 0.00145087 40.9914 -3.6304 -3.64499 -6.97739 -0.00709464 0.0362827 -0.0170731 -3.52551 
18 -0.00224616 0.00124461 43.5729 -3.39179 -3.40548 -6.65637 -0.00639432 0.0372227 -0.0187948 -3.52623 
19 -0.00150468 0.000906256 46.1568 -3.12808 -3.13993 -6.29441 -0.00540607 0.0383921 -0.0213759 -3.52697 
20 -0.000616268 0.000390412 48.7435 -2.74694 -2.75359 -5.85661 -0.00302325 0.0388289 -0.0247486 -3.52784 
21 5.95933e-07 -4.11185e-08 51.3317 -1.92293 -1.92241 -4.91829 0.000228016 -0.00198744 0.00132645 -3.53203 
22 4.01304e-07 -1.42881e-06 53.9138 -0.852063 -0.852079 -8.91781 -2.49089e-06 -3.87962e-05 -7.39605e-05 -3.48168 
23 8.71386e-07 -1.98378e-06 56.3885 1.68554 1.68555 1.87668 -2.34911e-05 3.23308e-05 7.90443e-07 -2.55581 
24 -1.23087e-07 -1.12453e-06 -53.8876 -2.60666 -2.6067 -6.54952 -1.60717e-05 6.12372e-06 -4.02934e-05 -3.40183 
25 1.02659e-07 -1.55837e-06 -51.3239 -2.07963 -2.08018 -5.58657 -0.000559202 -0.00111127 0.00246134 -3.52874 
26 0.000348788 -0.0006766 -48.7465 -2.71396 -2.70742 -6.17275 0.00670957 0.0214102 -0.0423838 -3.5263 
27 0.000827323 -0.00157106 -46.1651 -3.04362 -3.03313 -6.37633 0.0120663 0.0208577 -0.0380202 -3.52668 
28 0.00114788 -0.00220274 -43.583 -3.32408 -3.31181 -6.63649 0.013451 0.022158 -0.0335195 -3.52625 
29 0.00136454 -0.00263294 -41.0018 -3.578 -3.56426 -6.92275 0.0137735 0.0232221 -0.0299983 -3.52565 
30 0.00149437 -0.00290959 -38.4223 -3.82639 -3.81128 -7.22863 0.013579 0.0236338 -0.0275317 -3.52483 
31 0.00154745 -0.00306457 -35.845 -4.0709 -4.05442 -7.55073 0.0130794 0.0232517 -0.0261246 -3.52377 
32 0.00153042 -0.00312057 -33.2703 -4.30262 -4.28474 -7.87844 0.0123661 0.0220756 -0.0257778 -3.52255 
33 0.0014463 -0.0030957 -30.6988 -4.50881 -4.48952 -8.19456 0.0114763 0.0202295 -0.0264514 -3.52127 
34 0.00129501 -0.0030063 -28.1304 -4.68099 -4.66039 -8.4821 0.0104262 0.0179647 -0.0280508 -3.52005 
35 0.0010756 -0.00286848 -25.5651 -4.81797 -4.79627 -8.7304 0.00923587 0.0156215 -0.0304145 -3.51897 
36 0.000789267 -0.00269838 -23.0025 -4.92338 -4.90093 -8.9362 0.00794375 0.0135496 -0.0333086 -3.51805 
37 0.00044163 -0.00251119 -20.4423 -5.00269 -4.97993 -9.10159 0.00660597 0.0120172 -0.0364495 -3.51731 
38 4.31353e-05 -0.00231952 -17.884 -5.06139 -5.03874 -9.23138 0.00528309 0.0111658 -0.0395456 -3.51671 
39 -0.000392152 -0.0021321 -15.3272 -5.1042 -5.08206 -9.33121 0.00402302 0.011016 -0.0423403 -3.51625 
40 -0.000848613 -0.00195328 -12.7715 -5.13491 -5.1136 -9.40648 0.0028481 0.0115052 -0.0446418 -3.5159 
41 -0.00131119 -0.0017834 -10.2168 -5.15639 -5.13615 -9.46181 0.00175094 0.0125319 -0.0463369 -3.51564 
42 -0.00176699 -0.00161993 -7.66278 -5.17074 -5.15175 -9.5009 0.000700698 0.0139895 -0.0473872 -3.51545 
43 -0.00220599 -0.00145892 -5.10919 -5.17937 -5.1618 -9.52648 -0.000341846 0.0157812 -0.0478105 -3.51533 
44 -0.00262093 -0.00129634 -2.5559 -5.18321 -5.16724 -9.54045 -0.00140644 0.017819 -0.0476542 -3.51526 
45 0.0929527 2.15907 1.27281 -4.0517 -5.13185 -3.83717 -0.0552029 -0.43167 -0.0010725 -3.5291 
46 0.0664293 2.16022 3.826 -4.04777 -5.13151 -3.82778 -0.0427513 -0.431018 -0.0101139 -3.52911 
47 0.0399478 2.16103 6.3794 -4.04628 -5.12934 -3.81027 -0.030111 -0.43038 -0.0192556 -3.52913 
48 0.0135193 2.16151 8.93317 -4.04728 -5.12499 -3.78379 -0.0173995 -0.429797 -0.0287959 -3.52915 
49 -0.0128459 2.16165 11.4875 -4.0508 -5.11788 -3.74693 -0.00476436 -0.429281 -0.0390734 -3.52918 
50 -0.0391374 2.16147 14.0425 -4.05674 -5.10712 -3.69762 0.00761006 -0.428819 -0.0504745 -3.52922 
51 -0.0653442 2.16095 16.5985 -4.06483 -5.09135 -3.63306 0.0194915 -0.428376 -0.0634275 -3.52927 
52 -0.0914552 2.1601 19.1557 -4.07441 -5.06856 -3.54969 0.0305837 -0.427904 -0.0783678 -3.52933 
53 -0.11746 2.15891 21.7144 -4.08404 -5.03581 -3.4432 0.0405112 -0.42734 -0.0956456 -3.52941 
54 -0.143347 2.1574 24.2751 -4.09089 -4.98884 -3.30883 0.0488192 -0.426604 -0.115324 -3.52952 
55 -0.169109 2.15559 26.8382 -4.08972 -4.92169 -3.14215 0.0550185 -0.425595 -0.136807 -3.52966 
56 -0.194737 2.15353 29.404 -4.07174 -4.82667 -2.94072 0.0587275 -0.424167 -0.158313 -3.52986 
57 -0.220216 2.1513 31.973 -4.02426 -4.69571 -2.7067 0.0599544 -0.422108 -0.17661 -3.53013 
58 -0.245521 2.14899 34.5453 -3.93394 -4.52445 -2.44911 0.0594338 -0.419106 -0.188169 -3.53048 
59 -0.270603 2.14663 37.1208 -3.79559 -4.31826 -2.18217 0.0586219 -0.414753 -0.192743 -3.53089 
60 -0.295407 2.14415 39.6989 -3.6177 -4.09177 -1.91727 0.0589851 -0.408735 -0.195456 -3.53129 
61 -0.319899 2.14145 42.2793 -3.41226 -3.85558 -1.65456 0.0611697 -0.401273 -0.202541 -3.53165 
62 -0.34411 2.13842 44.8618 -3.18587 -3.60631 -1.38231 0.0644199 -0.392949 -0.220772 -3.53194 
63 -0.368188 2.13528 47.4462 -2.90889 -3.29384 -1.09642 0.0655477 -0.385722 -0.242223 -3.53224 
64 -0.392512 2.13371 50.032 -2.4274 -2.80048 -0.486672 0.0586972 -0.408793 -0.208589 -3.53325 
65 -0.418483 2.1304 52.6263 -1.76582 -2.00537 -0.561285 0.0454569 -0.308936 -0.730032 -3.52456 
66 -0.44812 2.14653 55.1778 6.9767 7.73847 2.43083 0.0330424 -0.597311 1.77016 -3.02528 
67 0.649859 2.05055 -55.162 1.38951 0.842476 -0.678131 -0.188245 -0.0991935 1.20766 -3.26036 
68 0.633027 2.08274 -52.6122 -1.11222 -2.21881 -0.457812 -0.374528 -0.489256 -0.161476 -3.53567 
69 0.607028 2.08678 -50.0319 -2.00602 -2.56486 -0.885611 -0.162865 -0.421315 0.0767716 -3.53399 
70 0.58222 2.088 -47.4535 -2.65339 -3.07981 -1.23075 -0.124023 -0.385984 0.149211 -3.5329 
71 0.558096 2.09133 -44.8718 -3.0768 -3.44868 -1.38985 -0.101179 -0.382918 0.194459 -3.53224 
72 0.533947 2.09552 -42.2901 -3.37657 -3.73349 -1.61805 -0.0909765 -0.38821 0.207569 -3.53181 
73 0.509531 2.1 -39.7097 -3.62056 -3.98874 -1.8674 -0.0886313 -0.395123 0.214587 -3.53138 
74 0.484779 2.10463 -37.1313 -3.82285 -4.22585 -2.12932 -0.0922471 -0.401735 0.218738 -3.53095 
75 0.459713 2.1094 -34.5554 -3.98045 -4.43975 -2.39691 -0.100219 -0.407602 0.217769 -3.53052 
76 0.434383 2.11428 -31.9825 -4.08919 -4.62071 -2.65831 -0.110328 -0.41289 0.209061 -3.53015 
77 0.408837 2.11923 -29.4129 -4.1524 -4.76359 -2.90001 -0.120121 -0.417727 0.192662 -3.52985 
78 0.383101 2.12414 -26.8465 -4.18039 -4.87058 -3.11204 -0.127716 -0.422 0.171191 -3.52963 
79 0.357194 2.12891 -24.2829 -4.18494 -4.94807 -3.29015 -0.132154 -0.425536 0.147746 -3.52947 
80 0.331131 2.13343 -21.7219 -4.17581 -5.00328 -3.43485 -0.133232 -0.42826 0.124649 -3.52935 
81 0.304931 2.13766 -19.163 -4.15982 -5.04244 -3.54944 -0.131186 -0.430223 0.103234 -3.52927 
82 0.278616 2.14156 -16.6057 -4.14132 -5.07031 -3.63834 -0.12646 -0.431553 0.0840688 -3.52921 
83 0.252209 2.14511 -14.0497 -4.12281 -5.09028 -3.706 -0.119564 -0.432397 0.0672358 -3.52916 
84 0.225732 2.1483 -11.4947 -4.10564 -5.10468 -3.75638 -0.110994 -0.432879 0.0525398 -3.52913 
85 0.199206 2.15114 -8.9405 -4.09043 -5.11505 -3.7927 -0.101189 -0.433074 0.0396507 -3.52911 
86 0.172648 2.15364 -6.38679 -4.07738 -5.12241 -3.81745 -0.0904981 -0.43302 0.0281928 -3.5291 
87 0.146076 2.15579 -3.83344 -4.06657 -5.12742 -3.83242 -0.0791716 -0.43274 0.0177999 -3.52909 
88 0.119506 2.1576 -1.28029 -4.05799 -5.1305 -3.83877 -0.0673714 -0.43227 0.00814195 -3.5291 
89 0.215717 4.32582 -0.00421097 -3.38727 -4.73722 -3.29926 -0.0779868 -0.911549 0.0401441 -3.5337 
90 0.285711 6.49828 1.27194 -2.77246 -4.34128 -2.86151 -0.0811094 -1.33969 0.0546055 -3.53387 
91 2.2056 2.73652 -0.00294848 -3.38778 -3.53859 -3.0559 -0.421241 -0.314617 0.251599 -3.52984 
92 2.17192 2.76314 2.55016 -3.37417 -3.54978 -3.05179 -0.419012 -0.319885 0.244398 -3.52984 
93 2.29176 4.92784 1.27255 -2.72216 -3.56818 -2.73237 -0.348296 -0.787984 0.0210475 -3.53337 
94 4.2885 3.33632 1.27474 -3.40005 -2.89565 -2.73069 -0.501029 -0.20098 0.76186 -3.53337 
95 0.162906 4.32825 2.54875 -3.38255 -4.7392 -3.29451 -0.061757 -0.911472 0.0220927 -3.5337 
96 0.110131 4.32999 5.10186 -3.38216 -4.74143 -3.28379 -0.0452821 -0.91144 0.00385232 -3.5337 
97 0.206601 6.5013 3.8247 -2.77082 -4.34512 -2.8554 -0.0619511 -1.3403 0.0286198 -3.53387 
98 2.23152 4.95523 3.82561 -2.71257 -3.57898 -2.7257 -0.336618 -0.789909 0.00543432 -3.53337 
99 0.127536 6.50327 6.37765 -2.77418 -4.35066 -2.84481 -0.042684 -1.34116 0.00203068 -3.53386 
100 4.2474 3.38805 3.8278 -3.38615 -2.91111 -2.72336 -0.505294 -0.215264 0.755987 -3.53337 
101 2.13792 2.78929 5.10342 -3.36274 -3.56239 -3.0409 -0.415124 -0.325268 0.237115 -3.52984 
102 2.10362 2.81496 7.65695 -3.35363 -3.5763 -3.0227 -0.409521 -0.331007 0.229452 -3.52983 
103 2.17096 4.98176 6.37888 -2.70681 -3.59127 -2.71294 -0.323314 -0.79211 -0.010754 -3.53337 
104 4.20564 3.43918 6.38107 -3.37473 -2.92932 -2.70985 -0.507503 -0.22986 0.749865 -3.53337 
105 0.0574109 4.33105 7.65525 -3.38625 -4.7438 -3.26662 -0.0286742 -0.911496 -0.0150286 -3.5337 
106 0.00476509 4.33141 10.2091 -3.39507 -4.74609 -3.24208 -0.0120604 -0.911657 -0.0350415 -3.5337 
107 0.0485422 6.50418 8.93092 -2.7828 -4.35788 -2.8292 -0.0234185 -1.34231 -0.0257452 -3.53384 
108 2.11011 5.00744 8.93248 -2.70511 -3.60496 -2.69349 -0.308365 -0.794808 -0.0280078 -3.53337 
109 -0.030352 6.50402 11.4846 -2.79709 -4.3667 -2.80766 -0.00427521 -1.34378 -0.0553456 -3.53381 
110 4.16322 3.48969 8.93468 -3.36598 -2.95028 -2.68949 -0.507495 -0.245158 0.743172 -3.53336 
111 2.06903 2.84014 10.2109 -3.34697 -3.59133 -2.99624 -0.402092 -0.337352 0.221082 -3.52982 
112 2.03415 2.8648 12.7655 -3.34288 -3.60724 -2.96003 -0.392657 -0.344568 0.211625 -3.52981 
113 2.04899 5.03222 11.4866 -2.70778 -3.61992 -2.66632 -0.291696 -0.798238 -0.0468752 -3.53336 
114 4.12017 3.53956 11.4888 -3.36006 -2.97403 -2.66124 -0.505019 -0.261577 0.735534 -3.53336 
115 -0.0477869 4.33108 12.7635 -3.40892 -4.74794 -3.20879 0.00441184 -0.911909 -0.0567321 -3.53369 
116 -0.100224 4.33006 15.3186 -3.42811 -4.74874 -3.16474 0.020566 -0.912212 -0.0807017 -3.53369 
117 -0.109118 6.50279 14.0389 -2.81758 -4.37694 -2.77881 0.014606 -1.34556 -0.0874774 -3.53378 
118 1.98761 5.05609 14.0414 -2.71521 -3.63589 -2.62992 -0.273186 -0.802661 -0.0679789 -3.53335 
119 -0.187726 6.50048 16.5941 -2.84484 -4.3882 -2.74073 0.0330606 -1.34763 -0.12291 -3.53373 
120 4.07648 3.58876 14.0435 -3.35717 -3.00055 -2.62359 -0.499732 -0.279582 0.726499 -3.53335 
121 1.999 2.88894 15.3209 -3.3414 -3.62356 -2.91203 -0.380979 -0.352955 0.200643 -3.5298 
122 1.96358 2.91252 17.8774 -3.34237 -3.63951 -2.84958 -0.366783 -0.362844 0.187637 -3.52977 
123 1.92599 5.07902 16.597 -2.72776 -3.6524 -2.58225 -0.252682 -0.808375 -0.0920134 -3.53334 
124 4.03216 3.63724 16.5992 -3.3574 -3.02972 -2.57454 -0.491217 -0.2997 0.715518 -3.53334 
125 -0.152525 4.32833 17.8748 -3.45286 -4.74744 -3.10729 0.036182 -0.91249 -0.107581 -3.53368 
126 -0.204666 4.3259 20.4323 -3.483 -4.74231 -3.03298 0.0509776 -0.912631 -0.137946 -3.53367 
127 -0.266139 6.49708 19.1502 -2.87932 -4.39963 -2.69077 0.050898 -1.34986 -0.162422 -3.53368 
128 1.86414 5.10097 19.1538 -2.74565 -3.66859 -2.52068 -0.230036 -0.815715 -0.119704 -3.53332 
129 -0.344323 6.49259 21.7076 -2.92103 -4.40961 -2.62539 0.0679009 -1.35203 -0.206662 -3.53361 
130 3.98722 3.68497 19.1559 -3.36066 -3.06108 -2.51162 -0.479025 -0.322509 0.701936 -3.53333 
131 1.9279 2.93552 20.4352 -3.34521 -3.65374 -2.7694 -0.349802 -0.374578 0.172085 -3.52974 
132 1.89199 2.95793 22.9947 -3.34852 -3.66396 -2.66766 -0.329866 -0.388426 0.153548 -3.5297 
133 1.80209 5.12192 21.712 -2.76871 -3.68297 -2.442 -0.205164 -0.825031 -0.151688 -3.5333 
134 3.94168 3.7319 21.7141 -3.3664 -3.09361 -2.43182 -0.462765 -0.348577 0.685042 -3.5333 
135 -0.256626 4.32279 22.9914 -3.5175 -4.73056 -2.93758 0.0645814 -0.912482 -0.172128 -3.53367 
136 -0.308384 4.31901 25.5525 -3.55371 -4.70771 -2.81624 0.0765052 -0.911873 -0.209849 -3.53368 
137 -0.422239 6.48704 24.2667 -2.96901 -4.41527 -2.53998 0.0838157 -1.35376 -0.255854 -3.53355 
138 1.73987 5.14186 24.272 -2.79584 -3.69304 -2.34255 -0.178165 -0.836605 -0.188262 -3.53326 
139 -0.499853 6.4805 26.8278 -3.02043 -4.41167 -2.42898 0.0983096 -1.35459 -0.309262 -3.53349 
140 3.89554 3.77801 24.274 -3.37322 -3.12531 -2.33182 -0.442273 -0.378285 0.664207 -3.53327 
141 1.85585 2.97974 25.5563 -3.34938 -3.66639 -2.54037 -0.307068 -0.404374 0.131931 -3.52966 
142 1.81955 3.001 28.1204 -3.34232 -3.65502 -2.38404 -0.282018 -0.421716 0.107968 -3.5296 
143 1.67752 5.16081 26.8341 -2.82426 -3.69475 -2.2186 -0.149535 -0.850458 -0.228899 -3.53322 
144 3.84887 3.8233 26.8361 -3.37812 -3.15249 -2.20809 -0.41788 -0.411437 0.639212 -3.53322 
145 -0.359927 4.31467 28.116 -3.58597 -4.66701 -2.66412 0.086142 -0.910637 -0.249615 -3.53372 
146 -0.411241 4.30988 30.6825 -3.60398 -4.59896 -2.47807 0.0928649 -0.908587 -0.288055 -3.5338 
147 -0.577135 6.47314 29.3914 -3.0692 -4.3909 -2.28639 0.110877 -1.35406 -0.364409 -3.53346 
148 1.61508 5.17888 29.3989 -2.84824 -3.68189 -2.06699 -0.12047 -0.865922 -0.271481 -3.53316 
149 -0.654067 6.46521 31.9581 -3.10411 -4.34117 -2.1076 0.120742 -1.3518 -0.41634 -3.53349 
150 3.80179 3.8678 29.4007 -3.37544 -3.1688 -2.05749 -0.39077 -0.446568 0.610862 -3.53316 
151 1.78318 3.02179 30.6874 -3.31813 -3.62101 -2.19709 -0.256166 -0.438476 0.0839443 -3.52955 
152 1.74689 3.04229 33.2577 -3.26361 -3.55315 -1.98162 -0.23193 -0.451124 0.0640852 -3.52954 
153 1.55267 5.1963 31.9667 -2.85734 -3.64538 -1.88625 -0.0931578 -0.880911 -0.311424 -3.5331 
154 3.75448 3.91166 31.9683 -3.35537 -3.16417 -1.8781 -0.363262 -0.480084 0.581845 -3.5331 
155 -0.462307 4.30488 33.2523 -3.59199 -4.49226 -2.25933 0.0963394 -0.905341 -0.319971 -3.53397 
156 -0.513072 4.29986 35.8256 -3.53227 -4.33802 -2.01664 0.0970277 -0.900043 -0.340828 -3.53424 
157 -0.730615 6.45712 34.5283 -3.10745 -4.24702 -1.893 0.126966 -1.34732 -0.458009 -3.53362 
158 1.49047 5.21342 34.5377 -2.83546 -3.57311 -1.67814 -0.0706336 -0.891253 -0.341757 -3.53307 
159 -0.806704 6.44922 37.102 -3.05788 -4.09382 -1.65271 0.129144 -1.3393 -0.483781 -3.53389 
160 3.70726 3.95511 34.5392 -3.30286 -3.12457 -1.67104 -0.338596 -0.506175 0.557133 -3.53307 
161 1.71086 3.06269 35.8313 -3.16491 -3.44136 -1.74482 -0.212052 -0.455852 0.0528992 -3.5296 
162 1.67527 3.08309 38.408 -3.01651 -3.28384 -1.49743 -0.197722 -0.452353 0.0499642 -3.52976 
163 1.42873 5.23061 37.1122 -2.76367 -3.45231 -1.44954 -0.0556513 -0.891739 -0.356588 -3.53313 
164 3.66052 3.99844 37.1136 -3.19988 -3.03569 -1.44294 -0.319634 -0.519492 0.541874 -3.53312 
165 -0.563443 4.29489 38.402 -3.41594 -4.13858 -1.76512 0.0964956 -0.89154 -0.35219 -3.53458 
166 -0.613321 4.28979 40.981 -3.25053 -3.90993 -1.51707 0.0968803 -0.879345 -0.363126 -3.53493 
167 -0.882198 6.44161 39.6791 -2.94374 -3.88116 -1.40653 0.128439 -1.32601 -0.496811 -3.53426 
168 1.36768 5.24807 39.6897 -2.63146 -3.2783 -1.21227 -0.0486589 -0.881173 -0.359244 -3.5333 
169 -0.956989 6.43399 42.2584 -2.7734 -3.62907 -1.17201 0.127482 -1.30747 -0.509958 -3.53462 
170 3.61451 4.04178 39.6909 -3.03627 -2.89249 -1.20612 -0.306839 -0.521331 0.534651 -3.53329 
171 1.64013 3.10343 40.9872 -2.82687 -3.08944 -1.24714 -0.18733 -0.445979 0.0472081 -3.53 
172 1.60535 3.12354 43.5685 -2.60596 -2.86618 -0.991574 -0.178412 -0.443372 0.0362201 -3.53027 
173 1.3074 5.26564 42.2695 -2.44527 -3.0602 -0.976415 -0.0468976 -0.866142 -0.364228 -3.53355 
174 3.56918 4.08506 42.2706 -2.81949 -2.70343 -0.972347 -0.298085 -0.521593 0.52457 -3.53354 
175 -0.662689 4.28437 43.5619 -3.04726 -3.66234 -1.27178 0.0992802 -0.864363 -0.382148 -3.53524 
176 -0.711713 4.27859 46.1444 -2.81795 -3.39352 -1.00911 0.102905 -0.848702 -0.414823 -3.5355 
177 -1.03114 6.42616 44.8391 -2.55381 -3.34437 -0.955623 0.127595 -1.28606 -0.528594 -3.53496 
178 1.24772 5.28317 44.8508 -2.2123 -2.80274 -0.743569 -0.0486913 -0.855204 -0.383138 -3.53387 
179 -1.10503 6.41843 47.4202 -2.2917 -3.01536 -0.768828 0.129685 -1.26629 -0.543087 -3.53529 
180 3.52432 4.1282 44.8518 -2.55493 -2.47588 -0.747462 -0.290795 -0.52925 0.503009 -3.53384 
181 1.57074 3.1434 46.1515 -2.35844 -2.61641 -0.71333 -0.170667 -0.452146 0.00857227 -3.53054 
182 1.53614 3.16342 48.7363 -2.08461 -2.35842 -0.342532 -0.182156 -0.47431 -0.0314892 -3.53016 
183 1.1882 5.30067 47.433 -1.939 -2.50334 -0.512277 -0.0625155 -0.861064 -0.42864 -3.53412 
184 3.47967 4.17124 47.4337 -2.23674 -2.2194 -0.539514 -0.285244 -0.554923 0.458512 -3.53405 
185 -0.760877 4.27346 48.7284 -2.59783 -3.07054 -0.661481 0.0968481 -0.837578 -0.422459 -3.53518 
186 -0.811621 4.26877 51.3169 -1.98841 -2.35069 0.314452 0.0838743 -0.842597 -0.652946 -3.53805 
187 -1.17889 6.41384 50.0002 -2.05319 -2.54092 -0.328337 0.0839681 -1.27274 -0.621171 -3.53574 
188 1.12775 5.31799 50.0156 -1.56802 -2.07724 -0.0176653 -0.109398 -0.942305 -0.595964 -3.53484 
189 -1.25707 6.40546 52.5877 -1.61241 -2.48686 0.643308 0.175873 -1.31638 -0.612941 -3.53281 
190 3.43505 4.21346 50.0156 -1.75812 -1.85187 -0.0369108 -0.308691 -0.665969 0.312516 -3.5349 
191 1.50027 3.18358 51.3264 -1.43158 -1.70109 0.658972 -0.172614 -0.54918 -0.132901 -3.53272 
192 1.46587 3.20964 53.9052 0.0266807 0.953963 -0.79595 0.566291 -0.561017 0.13892 -3.37565 
193 1.06597 5.33731 52.6041 -1.24922 -1.89861 0.441412 -0.237014 -0.801284 -0.410763 -3.52779 
194 3.38747 4.26008 52.6041 -1.41015 -1.71371 0.389745 -0.390627 -0.639374 0.58743 -3.52746 
195 -0.866323 4.2769 53.8949 -0.0508117 -0.206182 -1.18038 0.0793927 -1.26167 1.02744 -3.38132 
196 1.3298 4.1174 -56.3442 5.06943 2.90553 1.6024 -1.25476 -0.273887 0.110272 -2.79034 
197 -1.33605 6.40133 55.1665 4.17993 2.79753 1.28993 0.319901 -1.52322 0.197952 -3.26107 
198 1.00488 5.36129 55.1754 5.64224 6.63191 2.70783 0.369933 -0.63644 -0.0325239 -3.15047 
199 1.98371 6.26223 -55.1334 6.93993 9.11552 2.92926 0.134174 -0.847915 -0.525691 -3.02309 
200 3.34328 4.30996 55.1754 5.53067 7.35783 2.86919 0.118678 -0.278572 0.562691 -3.15115 
201 2.87095 2.09325 -56.362 4.04254 6.0065 1.88108 -3.16454 0.252679 0.341822 -2.79939 
202 2.84551 2.1252 -53.8874 0.165086 0.763341 -3.02648 -0.982078 -0.732806 -0.162356 -3.51266 
203 3.53831 4.21674 -55.1525 6.03167 6.27393 1.7593 0.302434 -1.21948 -0.0444695 -3.1433 
204 5.07312 2.13635 -55.1525 6.04997 7.03888 2.0031 0.446055 -0.52811 0.0805551 -3.14511 
205 1.29262 4.16451 -53.8815 0.86124 -0.348132 -3.67516 -0.408823 -0.573888 0.838998 -3.51412 
206 1.24176 4.17585 -51.3147 -1.28747 -1.91169 -0.379436 -0.214939 -0.88178 0.220314 -3.53905 
207 1.90264 6.26187 -52.5941 -0.918139 -1.45683 -0.573027 -0.184205 -1.16811 0.820009 -3.52792 
208 3.4607 4.22944 -52.6036 -0.74924 -0.925971 0.0951412 -0.677555 -0.496208 0.191276 -3.53019 
209 1.82403 6.27282 -50.0101 -1.64388 -2.33274 -0.272156 -0.195034 -1.27253 0.431874 -3.53675 
210 5.01221 2.17771 -52.6036 -1.34212 -0.348736 0.0543253 -0.502615 0.0190817 0.991443 -3.52953 
211 2.80522 2.14769 -51.32 -1.10399 -0.947373 -0.117336 -0.27836 -0.334427 0.262354 -3.53415 
212 2.77267 2.17448 -48.7406 -1.97975 -1.84208 -0.559671 -0.291959 -0.204503 0.341069 -3.53087 
213 3.40036 4.25787 -50.02 -1.43596 -1.65794 -0.149526 -0.410027 -0.699457 0.288865 -3.53496 
214 4.971 2.23184 -50.02 -1.84893 -1.27638 -0.121629 -0.29693 0.0299125 0.837161 -3.535 
215 1.19012 4.18031 -48.7356 -2.19007 -2.76417 -0.80328 -0.180815 -0.832463 0.279379 -3.53641 
216 1.14099 4.18615 -46.1544 -2.65208 -3.19587 -0.99368 -0.162667 -0.820355 0.398915 -3.53606 
217 1.74949 6.27852 -47.4308 -2.11262 -2.83622 -0.692182 -0.213589 -1.23019 0.54435 -3.5359 
218 3.34585 4.28735 -47.4413 -1.90668 -2.20955 -0.578958 -0.300989 -0.624092 0.339898 -3.53415 
219 1.67615 6.29018 -44.8499 -2.48446 -3.19292 -0.880092 -0.200088 -1.23459 0.603349 -3.53536 
220 4.93558 2.28429 -47.4405 -2.33079 -1.78893 -0.553536 -0.211128 0.120515 0.866382 -3.5342 
221 2.74316 2.20158 -46.1597 -2.37951 -2.26962 -0.754231 -0.229968 -0.14626 0.394748 -3.53075 
222 2.71532 2.23009 -43.5781 -2.6946 -2.59064 -0.965497 -0.21288 -0.136777 0.414926 -3.53038 
223 3.29296 4.31943 -44.8609 -2.24776 -2.57283 -0.733291 -0.260148 -0.612359 0.374856 -3.53393 
224 4.90328 2.33725 -44.8598 -2.67205 -2.14235 -0.734399 -0.176067 0.155844 0.897502 -3.53393 
225 1.09238 4.19452 -43.5727 -2.99258 -3.5149 -1.2217 -0.14886 -0.82954 0.425231 -3.53554 
226 1.04352 4.20367 -40.9919 -3.25377 -3.78944 -1.46241 -0.145775 -0.843862 0.43253 -3.5351 
227 1.60286 6.30357 -42.2691 -2.76859 -3.49835 -1.10706 -0.199147 -1.25326 0.619504 -3.53485 
228 3.24083 4.35302 -42.2802 -2.52335 -2.86803 -0.933263 -0.242763 -0.616262 0.392326 -3.53361 
229 1.52896 6.31769 -39.6895 -2.98051 -3.76493 -1.35055 -0.205882 -1.27357 0.623572 -3.5344 
230 4.87234 2.39114 -42.2791 -2.95784 -2.42316 -0.940427 -0.164919 0.165927 0.922537 -3.5336 
231 2.68786 2.25939 -40.9972 -2.95164 -2.85135 -1.19515 -0.209571 -0.136302 0.428991 -3.53007 
232 2.66035 2.28935 -38.4178 -3.16537 -3.06613 -1.43655 -0.214061 -0.137014 0.440561 -3.52982 
233 3.18878 4.38771 -39.7004 -2.74175 -3.10733 -1.15688 -0.237113 -0.622744 0.402567 -3.53334 
234 4.84184 2.44605 -39.6993 -3.19565 -2.6402 -1.16435 -0.165392 0.169291 0.94429 -3.53333 
235 0.994118 4.21314 -38.4127 -3.45413 -4.03335 -1.71269 -0.150282 -0.857722 0.434139 -3.53468 
236 0.944154 4.22287 -35.8358 -3.59537 -4.24322 -1.96733 -0.159578 -0.869272 0.429151 -3.5343 
237 1.45429 6.33236 -37.1121 -3.12323 -3.98811 -1.60207 -0.216644 -1.29079 0.618792 -3.53399 
238 3.13657 4.42338 -37.1227 -2.90364 -3.29066 -1.39037 -0.240466 -0.63071 0.404617 -3.53315 
239 1.3789 6.34758 -34.5379 -3.19761 -4.15672 -1.84799 -0.227258 -1.30431 0.600243 -3.53368 
240 4.81151 2.50198 -37.1215 -3.38323 -2.79628 -1.39689 -0.175766 0.167687 0.958328 -3.53314 
241 2.63272 2.3199 -35.8407 -3.33517 -3.23505 -1.68214 -0.22578 -0.14036 0.446338 -3.52964 
242 2.60496 2.35098 -33.2665 -3.45672 -3.35576 -1.92175 -0.244549 -0.149622 0.442468 -3.52955 
243 3.08414 4.45992 -34.5477 -3.00699 -3.41652 -1.62022 -0.252206 -0.643351 0.393226 -3.53306 
244 4.78128 2.5588 -34.5464 -3.51564 -2.89328 -1.62614 -0.196176 0.156133 0.959554 -3.53305 
245 0.893708 4.23287 -33.2621 -3.67695 -4.41008 -2.215 -0.170392 -0.878627 0.413554 -3.534 
246 0.842873 4.24303 -30.6917 -3.70633 -4.53119 -2.44223 -0.179778 -0.886451 0.386321 -3.5338 
247 1.30293 6.36321 -31.9671 -3.21362 -4.26875 -2.07212 -0.234718 -1.31504 0.565631 -3.5335 
248 3.03139 4.49703 -31.9761 -3.05662 -3.49203 -1.83388 -0.270683 -0.661529 0.367246 -3.53306 
249 1.22645 6.37891 -29.3999 -3.18917 -4.33392 -2.26347 -0.237976 -1.32342 0.518517 -3.53343 
250 4.75102 2.61622 -31.9746 -3.59556 -2.94042 -1.83999 -0.225057 0.132219 0.947804 -3.53305 
251 2.57702 2.38238 -30.6955 -3.53163 -3.43234 -2.14424 -0.268633 -0.165373 0.428747 -3.52954 
252 2.54876 2.41387 -28.1278 -3.56848 -3.47522 -2.34124 -0.295105 -0.185178 0.408528 -3.52957 
253 2.97819 4.5343 -29.4078 -3.06503 -3.53113 -2.0231 -0.2929 -0.682728 0.331186 -3.53311 
254 4.72044 2.67391 -29.4062 -3.63355 -2.95289 -2.02987 -0.259005 0.0987549 0.927498 -3.53309 
255 0.791707 4.25314 -28.1247 -3.69826 -4.6125 -2.63945 -0.185929 -0.893034 0.350611 -3.53368 
256 0.740245 4.26297 -25.5607 -3.66801 -4.66374 -2.80315 -0.188181 -0.898338 0.311048 -3.53362 
257 1.14952 6.39427 -26.8358 -3.14197 -4.36596 -2.41879 -0.237142 -1.32942 0.46502 -3.53343 
258 2.92438 4.57132 -26.8425 -3.04649 -3.54751 -2.18455 -0.315553 -0.703852 0.291064 -3.53317 
259 1.07218 6.40896 -24.2745 -3.08544 -4.37725 -2.54046 -0.232616 -1.33327 0.410568 -3.53348 
260 4.68927 2.73156 -26.8408 -3.64209 -2.94525 -2.1918 -0.294339 0.0606795 0.903614 -3.53315 
261 2.52007 2.44523 -25.5631 -3.5783 -3.49601 -2.50878 -0.321165 -0.206015 0.385804 -3.52962 
262 2.49085 2.47632 -23.001 -3.57093 -3.50417 -2.64675 -0.344875 -0.225714 0.36346 -3.52967 
263 2.86989 4.60781 -24.28 -3.01295 -3.55138 -2.31837 -0.336017 -0.72279 0.251429 -3.53322 
264 4.65729 2.78897 -24.2781 -3.63196 -2.92837 -2.32554 -0.328322 0.0223125 0.879718 -3.5332 
265 0.688511 4.27233 -22.9993 -3.62749 -4.6944 -2.93457 -0.186595 -0.902363 0.271469 -3.5336 
266 0.636537 4.2811 -20.4401 -3.58452 -4.71197 -3.03754 -0.181585 -0.905283 0.234232 -3.53361 
267 0.99447 6.42276 -21.7154 -3.02825 -4.37691 -2.63353 -0.224849 -1.33551 0.358678 -3.53354 
268 2.81468 4.64359 -21.7198 -2.97291 -3.54943 -2.42669 -0.352755 -0.738615 0.214796 -3.53326 
269 0.916442 6.43554 -19.158 -2.97522 -4.37098 -2.70358 -0.21433 -1.33674 0.311061 -3.53361 
270 4.6244 2.84601 -21.7178 -3.61117 -2.90925 -2.43321 -0.359403 -0.0136104 0.857807 -3.53324 
271 2.46109 2.50703 -20.4412 -3.55374 -3.5062 -2.75749 -0.365234 -0.243169 0.343041 -3.52971 
272 2.43078 2.53731 -17.8832 -3.53172 -3.50609 -2.84451 -0.381953 -0.258061 0.325127 -3.52974 
273 2.75878 4.67857 -19.1614 -2.93177 -3.54563 -2.51264 -0.365194 -0.751238 0.182138 -3.5333 
274 4.59054 2.90259 -19.1594 -3.58514 -2.89189 -2.51812 -0.386951 -0.0458207 0.838727 -3.53327 
275 0.584352 4.28919 -17.8826 -3.5436 -4.72169 -3.11675 -0.173705 -0.907364 0.200408 -3.53362 
276 0.531989 4.29656 -15.3265 -3.50691 -4.72695 -3.17673 -0.163533 -0.908862 0.17021 -3.53363 
277 0.838141 6.44723 -16.602 -2.92852 -4.36312 -2.75567 -0.201571 -1.33745 0.268172 -3.53367 
278 2.70222 4.7127 -16.6046 -2.89255 -3.54217 -2.57961 -0.373404 -0.761015 0.1535 -3.53332 
279 0.759611 6.4578 -14.0471 -2.8887 -4.35534 -2.79394 -0.187065 -1.33791 0.229739 -3.53373 
280 4.55573 2.95867 -16.6026 -3.55726 -2.87824 -2.58392 -0.410897 -0.0740562 0.822611 -3.5333 
281 2.39994 2.56715 -15.3267 -3.50797 -3.50606 -2.91162 -0.395175 -0.270525 0.309732 -3.52977 
282 2.3686 2.59652 -12.7713 -3.48429 -3.5072 -2.96237 -0.405262 -0.280903 0.296589 -3.52979 
283 2.64505 4.74597 -14.049 -2.85673 -3.54014 -2.63087 -0.377788 -0.768459 0.128467 -3.53333 
284 4.51999 3.01424 -14.0469 -3.52954 -2.869 -2.63402 -0.431471 -0.098621 0.809208 -3.53332 
285 0.479479 4.30322 -12.7715 -3.47524 -4.72985 -3.22135 -0.151606 -0.909957 0.143353 -3.53365 
286 0.426852 4.30915 -10.2172 -3.44861 -4.7316 -3.25375 -0.13838 -0.910743 0.119323 -3.53366 
287 0.680889 6.46726 -11.493 -2.85549 -4.34868 -2.82158 -0.171235 -1.33827 0.195137 -3.53377 
288 2.58732 4.77838 -11.4943 -2.82483 -3.53999 -2.66926 -0.378856 -0.774081 0.106443 -3.53335 
289 0.602014 6.47561 -8.93942 -2.82836 -4.34361 -2.84092 -0.15441 -1.33856 0.163622 -3.53381 
290 4.48337 3.06927 -11.4921 -3.50303 -2.86419 -2.67133 -0.449009 -0.120072 0.7981 -3.53333 
291 2.3368 2.62544 -10.2167 -3.46164 -3.50999 -2.99978 -0.41263 -0.289597 0.285325 -3.52981 
292 2.30458 2.65389 -7.66277 -3.44049 -3.51455 -3.02628 -0.417661 -0.296994 0.275545 -3.52982 
293 2.52907 4.80994 -8.94023 -2.79689 -3.54186 -2.69711 -0.377092 -0.77832 0.0868001 -3.53336 
294 4.44592 3.12377 -8.93809 -3.47828 -2.86355 -2.69824 -0.463856 -0.139033 0.788822 -3.53334 
295 0.374135 4.31437 -7.6635 -3.42675 -4.7329 -3.27628 -0.124202 -0.911257 0.0975338 -3.53367 
296 0.321356 4.31888 -5.1102 -3.40934 -4.73414 -3.29066 -0.109313 -0.911525 0.0774122 -3.53368 
297 0.523024 6.48288 -6.3863 -2.80678 -4.34032 -2.85364 -0.136829 -1.33879 0.134458 -3.53384 
298 2.47035 4.84066 -6.38669 -2.77276 -3.5457 -2.71623 -0.372894 -0.781539 0.068949 -3.53336 
299 0.443953 6.48908 -3.83345 -2.79039 -4.33884 -2.86087 -0.118664 -1.33901 0.106968 -3.53386 
300 4.40767 3.17773 -6.38453 -3.4555 -2.86669 -2.71655 -0.476303 -0.1561 0.780931 -3.53335 
301 2.27195 2.68189 -5.10927 -3.42105 -3.52088 -3.0437 -0.420653 -0.303434 0.266881 -3.52983 
302 2.23895 2.70944 -2.55605 -3.40345 -3.52893 -3.05331 -0.421806 -0.309218 0.258999 -3.52984 
303 2.4112 4.87055 -3.83347 -2.7523 -3.55144 -2.72795 -0.36656 -0.784044 0.052357 -3.53337 
304 4.36866 3.23115 -3.8313 -3.43482 -2.87327 -2.72755 -0.486566 -0.171806 0.774032 -3.53336 
305 0.268541 4.3227 -2.55715 -3.39621 -4.73555 -3.29808 -0.0938708 -0.911596 0.0584384 -3.53369 
306 0.364838 6.49421 -1.28074 -2.77898 -4.33917 -2.86336 -0.100051 -1.33928 0.0805395 -3.53387 
307 2.35166 4.89961 -1.28043 -2.73543 -3.55897 -2.73316 -0.358309 -0.786108 0.0365408 -3.53337 
308 4.32893 3.28402 -1.27825 -3.41631 -2.883 -2.73212 -0.494785 -0.186625 0.767778 -3.53336 
309 2.43663 7.09179 -0.00404221 -2.21149 -3.3587 -2.40317 -0.319346 -1.19136 -0.176795 -3.53293 
310 0.434904 8.66918 -0.0044212 -2.247 -4.01434 -2.49594 -0.101537 -1.72731 0.0902838 -3.53362 
311 0.329411 8.67384 2.54793 -2.24364 -4.01803 -2.49273 -0.0804075 -1.7284 0.0572056 -3.53362 