ITEM: TIMESTEP
0
ITEM: NUMBER OF ATOMS
37664
ITEM: BOX BOUNDS ff ff ff
-100 100
-100 100
-156.15 156.15
ITEM: ATOMS id x y z v_peratom_sxx v_peratom_syy v_peratom_szz v_peratom_sxy v_peratom_sxz v_peratom_syz c_atomPE 
1 -0.00264873 -0.000193298 -0.00477738 -5.18086 -5.17443 -9.54448 -0.0122389 0.0741996 -0.0271226 -3.51524 
2 -0.00310251 -0.000137317 2.5484 -5.17458 -5.17096 -9.53528 -0.0123088 0.0742468 -0.0264212 -3.51528 
3 -0.00353337 -8.32218e-05 5.1018 -5.16432 -5.16347 -9.51742 -0.0120575 0.0733522 -0.0253149 -3.51536 
4 -0.00393803 -2.74055e-05 7.65543 -5.14926 -5.15112 -9.4865 -0.0116857 0.0718382 -0.0240735 -3.51551 
5 -0.00431524 3.0796e-05 10.2096 -5.12962 -5.13448 -9.4457 -0.0110871 0.0697718 -0.022567 -3.51569 
6 -0.00465612 0.000106082 12.7643 -5.10382 -5.11062 -9.39004 -0.0108241 0.0672909 -0.0208833 -3.51595 
7 -0.00495369 0.000197633 15.32 -5.07027 -5.07979 -9.31478 -0.00993497 0.0646794 -0.0187658 -3.51629 
8 -0.00518816 0.000308432 17.8768 -5.02597 -5.03844 -9.22206 -0.00941907 0.0624381 -0.0161681 -3.51672 
9 -0.00535655 0.000443264 20.4349 -4.97048 -4.98449 -9.10064 -0.008965 0.0604075 -0.0135173 -3.51726 
10 -0.00545014 0.000595212 22.9948 -4.89636 -4.91294 -8.94739 -0.00827759 0.0582433 -0.0112331 -3.51795 
11 -0.0054661 0.000752073 25.5569 -4.7997 -4.81839 -8.7545 -0.0078719 0.0563648 -0.00909295 -3.5188 
12 -0.00540007 0.00090631 28.1216 -4.67388 -4.69414 -8.51834 -0.00725265 0.0546104 -0.00712736 -3.51983 
13 -0.00525314 0.00104334 30.6894 -4.51334 -4.53545 -8.24258 -0.0073564 0.0529256 -0.006353 -3.52101 
14 -0.00502004 0.00114106 33.2603 -4.31568 -4.33887 -7.93154 -0.00681233 0.0513162 -0.00628373 -3.52231 
15 -0.00469225 0.0011879 35.8345 -4.09073 -4.11429 -7.60497 -0.00652771 0.0500998 -0.0069676 -3.52357 
16 -0.00426406 0.00118083 38.4114 -3.8525 -3.87622 -7.27836 -0.00645115 0.0492361 -0.00838089 -3.52467 
17 -0.00371172 0.00110455 40.9909 -3.61371 -3.63691 -6.96045 -0.00570024 0.0490456 -0.0100777 -3.52556 
18 -0.00299977 0.000941518 43.5725 -3.37451 -3.39663 -6.63966 -0.00518297 0.0498072 -0.0122497 -3.52628 
19 -0.00207655 0.000679554 46.1565 -3.11126 -3.13081 -6.27731 -0.00459398 0.0521858 -0.0147877 -3.52702 
20 -0.000877327 0.000285506 48.7433 -2.7321 -2.74309 -5.84025 -0.00223095 0.0553626 -0.0179253 -3.52789 
21 5.95933e-07 -4.11185e-08 51.3317 -1.9229 -1.92206 -4.91375 0.000137052 -0.00291676 0.000942264 -3.53203 
22 4.01304e-07 -1.42881e-06 53.9138 -0.852029 -0.852051 -8.91765 -2.9121e-09 -3.48334e-05 -7.02986e-05 -3.48168 
23 8.71386e-07 -1.98378e-06 56.3885 1.68554 1.68555 1.87668 -2.34625e-05 3.25663e-05 9.24683e-07 -2.55581 
24 -1.23087e-07 -1.12453e-06 -53.8876 -2.60673 -2.60675 -6.54969 -2.22355e-05 2.31164e-05 -4.24997e-05 -3.40183 
25 1.02659e-07 -1.55837e-06 -51.3239 -2.07937 -2.08081 -5.59361 -0.000183631 -0.0038252 0.00156511 -3.52875 
26 0.00105674 -0.000426188 -48.7467 -2.74124 -2.72601 -6.20049 0.000937444 0.0659844 -0.0266262 -3.52621 
27 0.00235803 -0.000976623 -46.1655 -3.07325 -3.05051 -6.40519 0.00156319 0.057205 -0.0247969 -3.52661 
28 0.00310958 -0.00138818 -43.5836 -3.35268 -3.32705 -6.66229 0.00247627 0.0529919 -0.0219581 -3.52618 
29 0.0035012 -0.0016899 -41.0025 -3.60375 -3.57797 -6.94564 0.00271886 0.0519601 -0.0186656 -3.5256 
30 0.00366327 -0.00190196 -38.4231 -3.85009 -3.82365 -7.2498 0.00342758 0.0520776 -0.0154954 -3.52478 
31 0.00368137 -0.00202627 -35.8459 -4.09322 -4.06574 -7.57041 0.00341524 0.052344 -0.0130612 -3.52373 
32 0.0035942 -0.00206723 -33.2714 -4.32278 -4.29548 -7.89591 0.00365453 0.0523369 -0.0111975 -3.52251 
33 0.00341373 -0.00202449 -30.6999 -4.52917 -4.4996 -8.2119 0.00292166 0.0513689 -0.0104431 -3.52122 
34 0.00314412 -0.00190274 -28.1316 -4.70061 -4.67085 -8.49883 0.00238282 0.0503195 -0.0108649 -3.52 
35 0.00278439 -0.00172321 -25.5663 -4.83789 -4.8069 -8.74693 0.00088548 0.0495514 -0.0122389 -3.51891 
36 0.00234135 -0.00151166 -23.0039 -4.94253 -4.91218 -8.95536 -0.00122445 0.0493656 -0.0146992 -3.51798 
37 0.0018232 -0.00128966 -20.4438 -5.0202 -4.99079 -9.11947 -0.00342044 0.0507343 -0.0176749 -3.51724 
38 0.00125363 -0.0010757 -17.8856 -5.07623 -5.04903 -9.24754 -0.00513054 0.0538814 -0.0209188 -3.51665 
39 0.000655256 -0.000878465 -15.3289 -5.11792 -5.09308 -9.34776 -0.00725854 0.0574609 -0.0235351 -3.51618 
40 4.87196e-05 -0.000703988 -12.7734 -5.14611 -5.12439 -9.42057 -0.00897123 0.0611339 -0.0254586 -3.51584 
41 -0.000545036 -0.000558324 -10.2188 -5.16457 -5.14611 -9.4742 -0.0102156 0.0651588 -0.0269412 -3.51559 
42 -0.00111626 -0.00043984 -7.66481 -5.17624 -5.16078 -9.50976 -0.0110057 0.0685365 -0.0277559 -3.51542 
43 -0.0016582 -0.000343925 -5.11123 -5.18246 -5.17011 -9.53248 -0.0116758 0.0714095 -0.0278977 -3.51531 
44 -0.00216851 -0.000261121 -2.55797 -5.18408 -5.17462 -9.54424 -0.0120465 0.0732825 -0.0276485 -3.51524 
45 0.09314 2.15984 1.27161 -4.04818 -5.13929 -3.83938 -0.0622269 -0.420794 0.0126758 -3.5291 
46 0.0665691 2.16087 3.82482 -4.04397 -5.13674 -3.8288 -0.0479543 -0.420924 0.0030137 -3.52912 
47 0.0400294 2.16153 6.37826 -4.04272 -5.1353 -3.81028 -0.0337551 -0.421249 -0.00669842 -3.52912 
48 0.0135152 2.16189 8.93207 -4.04332 -5.12759 -3.7831 -0.0194234 -0.421878 -0.0170169 -3.52915 
49 -0.0129566 2.16188 11.4864 -4.04544 -5.12149 -3.74478 -0.00523042 -0.422285 -0.0279692 -3.52918 
50 -0.0393673 2.16158 14.0415 -4.05052 -5.10713 -3.69391 0.00873473 -0.422821 -0.0401139 -3.52922 
51 -0.0656971 2.16092 16.5975 -4.05642 -5.09115 -3.62871 0.0218792 -0.423143 -0.054084 -3.52927 
52 -0.0919113 2.15996 19.1548 -4.0644 -5.06651 -3.54456 0.0341603 -0.423354 -0.0692452 -3.52934 
53 -0.118004 2.15869 21.7136 -4.07247 -5.03296 -3.43742 0.0447073 -0.423395 -0.0868038 -3.52942 
54 -0.143971 2.15709 24.2744 -4.07889 -4.98579 -3.30202 0.0535652 -0.423357 -0.106808 -3.52953 
55 -0.1698 2.15523 26.8375 -4.07554 -4.91749 -3.13456 0.0599752 -0.422794 -0.128924 -3.52968 
56 -0.195474 2.15313 29.4034 -4.05702 -4.82176 -2.93294 0.0635125 -0.421662 -0.151055 -3.52988 
57 -0.220984 2.15088 31.9725 -4.00852 -4.69129 -2.69857 0.0647553 -0.419585 -0.169974 -3.53014 
58 -0.2463 2.14857 34.5448 -3.91722 -4.519 -2.44086 0.0640944 -0.416878 -0.18193 -3.5305 
59 -0.271385 2.14621 37.1203 -3.77936 -4.3133 -2.17334 0.0631701 -0.412811 -0.186516 -3.5309 
60 -0.296172 2.14375 39.6986 -3.60061 -4.08528 -1.90692 0.0631473 -0.406824 -0.189977 -3.53131 
61 -0.320614 2.14108 42.279 -3.39528 -3.84965 -1.64415 0.0654687 -0.398983 -0.197729 -3.53167 
62 -0.344712 2.13813 44.8616 -3.17076 -3.59942 -1.37187 0.0681813 -0.389789 -0.216271 -3.53196 
63 -0.368553 2.13509 47.4461 -2.89679 -3.28712 -1.08599 0.0684893 -0.380405 -0.237793 -3.53225 
64 -0.392512 2.13371 50.032 -2.42282 -2.79788 -0.481473 0.0553365 -0.405983 -0.20672 -3.53324 
65 -0.418483 2.1304 52.6263 -1.76571 -2.00527 -0.561159 0.0454992 -0.3089 -0.730004 -3.52456 
66 -0.44812 2.14653 55.1778 6.97671 7.73847 2.43085 0.0330426 -0.59731 1.77017 -3.02528 
67 0.649859 2.05055 -55.162 1.38951 0.842471 -0.678159 -0.188246 -0.0991912 1.20766 -3.26036 
68 0.633027 2.08274 -52.6122 -1.11248 -2.21891 -0.457962 -0.374577 -0.489154 -0.161542 -3.53568 
69 0.607028 2.08678 -50.0319 -2.00538 -2.57648 -0.891881 -0.159244 -0.414925 0.0845372 -3.53402 
70 0.583123 2.08843 -47.4536 -2.67705 -3.09219 -1.2489 -0.130403 -0.373873 0.161753 -3.53288 
71 0.55958 2.09205 -44.872 -3.1041 -3.46065 -1.40864 -0.109912 -0.374351 0.204598 -3.53221 
72 0.535718 2.09641 -42.2904 -3.40426 -3.74388 -1.63459 -0.0997422 -0.381476 0.216468 -3.53178 
73 0.511419 2.10097 -39.7101 -3.64759 -3.99929 -1.88249 -0.0976886 -0.389631 0.222926 -3.53135 
74 0.486692 2.10565 -37.1317 -3.8494 -4.23494 -2.14339 -0.10098 -0.397252 0.227785 -3.53092 
75 0.461588 2.11043 -34.5558 -4.00594 -4.4482 -2.41014 -0.108911 -0.403582 0.227728 -3.53049 
76 0.436179 2.11536 -31.983 -4.11372 -4.62794 -2.6711 -0.119554 -0.409106 0.220263 -3.53012 
77 0.4105 2.12033 -29.4134 -4.17542 -4.77159 -2.91161 -0.130464 -0.41431 0.20469 -3.52982 
78 0.384596 2.1253 -26.8471 -4.2011 -4.87679 -3.12289 -0.139352 -0.418596 0.183562 -3.52961 
79 0.358491 2.1301 -24.2836 -4.20191 -4.95505 -3.30141 -0.145315 -0.42169 0.160211 -3.52945 
80 0.332224 2.13466 -21.7227 -4.18844 -5.01065 -3.44602 -0.147593 -0.423119 0.137643 -3.52934 
81 0.30583 2.13891 -19.1638 -4.16749 -5.04945 -3.55958 -0.146453 -0.423626 0.11635 -3.52927 
82 0.279342 2.1428 -16.6067 -4.14562 -5.07823 -3.6473 -0.141859 -0.423763 0.0974801 -3.52921 
83 0.252781 2.14633 -14.0507 -4.12427 -5.09884 -3.71475 -0.134624 -0.42348 0.0808098 -3.52917 
84 0.226179 2.1495 -11.4959 -4.10549 -5.11298 -3.7645 -0.12514 -0.422688 0.0665824 -3.52914 
85 0.199557 2.15227 -8.94166 -4.0885 -5.12496 -3.79905 -0.114577 -0.422125 0.0537256 -3.52911 
86 0.172937 2.15471 -6.38799 -4.07433 -5.13071 -3.82295 -0.102344 -0.421482 0.0424602 -3.52911 
87 0.146331 2.15676 -3.83466 -4.06306 -5.13648 -3.83679 -0.0897399 -0.420932 0.032134 -3.5291 
88 0.119731 2.15848 -1.2815 -4.05433 -5.13793 -3.84172 -0.0761653 -0.420787 0.0223127 -3.5291 
89 0.215828 4.32653 -0.00486411 -3.38537 -4.7461 -3.30356 -0.0840284 -0.904974 0.0483358 -3.53369 
90 0.285817 6.49883 1.27166 -2.77391 -4.35113 -2.8674 -0.084394 -1.33626 0.0593264 -3.53386 
91 2.20581 2.73706 -0.00361695 -3.38532 -3.5428 -3.06267 -0.425501 -0.303802 0.261736 -3.52983 
92 2.1721 2.7636 2.5495 -3.37154 -3.55411 -3.05695 -0.422108 -0.309709 0.254151 -3.52983 
93 2.29189 4.92825 1.27217 -2.7214 -3.57351 -2.7374 -0.350516 -0.782123 0.0288659 -3.53337 
94 4.2887 3.33666 1.27445 -3.39966 -2.8995 -2.73566 -0.50344 -0.194677 0.766325 -3.53336 
95 0.163027 4.32886 2.54811 -3.38142 -4.74717 -3.29822 -0.0664679 -0.905363 0.0300469 -3.5337 
96 0.110255 4.33048 5.10123 -3.3817 -4.74822 -3.28648 -0.0483757 -0.905852 0.0111881 -3.5337 
97 0.206741 6.50175 3.82443 -2.77294 -4.35386 -2.86079 -0.0642819 -1.33729 0.0327912 -3.53385 
98 2.23166 4.95556 3.82524 -2.71254 -3.58388 -2.7294 -0.337937 -0.784558 0.0128246 -3.53337 
99 0.127693 6.50361 6.37738 -2.77701 -4.35759 -2.84966 -0.0442487 -1.33863 0.00566427 -3.53384 
100 4.24757 3.38832 3.82751 -3.38572 -2.91479 -2.72714 -0.506771 -0.209629 0.759925 -3.53336 
101 2.13806 2.78965 5.10277 -3.35982 -3.56656 -3.04422 -0.416979 -0.315746 0.246389 -3.52984 
102 2.10371 2.81522 7.65633 -3.35037 -3.58049 -3.02472 -0.410078 -0.322446 0.238406 -3.52983 
103 2.1711 4.98201 6.37851 -2.70677 -3.59543 -2.71561 -0.32394 -0.78747 -0.00403527 -3.53337 
104 4.20577 3.43938 6.38078 -3.37362 -2.93249 -2.71244 -0.508069 -0.224736 0.753456 -3.53337 
105 0.0575107 4.33141 7.65465 -3.38616 -4.74952 -3.2688 -0.0304399 -0.906735 -0.0079727 -3.5337 
106 0.00480397 4.33165 10.2085 -3.39509 -4.75037 -3.24369 -0.0121855 -0.907841 -0.0287835 -3.53369 
107 0.0486844 6.50441 8.93064 -2.78565 -4.36381 -2.83306 -0.0239511 -1.34012 -0.0223608 -3.53383 
108 2.11022 5.0076 8.93213 -2.70503 -3.6088 -2.69541 -0.308243 -0.791078 -0.0217647 -3.53337 
109 -0.0302522 6.50415 11.4844 -2.79982 -4.37058 -2.81068 -0.00379068 -1.34228 -0.0523662 -3.5338 
110 4.16331 3.48983 8.93438 -3.36395 -2.95356 -2.69112 -0.507201 -0.240786 0.746761 -3.53336 
111 2.06903 2.84031 10.2103 -3.34312 -3.59478 -2.99637 -0.401612 -0.330011 0.228994 -3.52982 
112 2.03406 2.86488 12.7649 -3.33769 -3.61019 -2.95839 -0.390835 -0.338009 0.219149 -3.52981 
113 2.04903 5.03231 11.4862 -2.70688 -3.62325 -2.66625 -0.290607 -0.795341 -0.041412 -3.53336 
114 4.12018 3.53964 11.4885 -3.35668 -2.97564 -2.66159 -0.503908 -0.257865 0.738483 -3.53336 
115 -0.0478223 4.3312 12.7629 -3.40756 -4.74993 -3.20867 0.00561976 -0.908494 -0.0505028 -3.53369 
116 -0.100354 4.33005 15.3181 -3.42648 -4.74936 -3.1643 0.0231514 -0.909522 -0.0752305 -3.53369 
117 -0.109074 6.50281 14.0387 -2.81968 -4.37918 -2.78052 0.016349 -1.34456 -0.0847586 -3.53377 
118 1.98758 5.05611 14.041 -2.71339 -3.63861 -2.62898 -0.271208 -0.800407 -0.0631834 -3.53335 
119 -0.187753 6.50041 16.5938 -2.84533 -4.38843 -2.7406 0.0358772 -1.34667 -0.120194 -3.53373 
120 4.07641 3.58878 14.0432 -3.35263 -3.00209 -2.62256 -0.497768 -0.276438 0.728991 -3.53336 
121 1.99881 2.88893 15.3203 -3.33499 -3.62656 -2.90935 -0.377949 -0.347494 0.20749 -3.5298 
122 1.96329 2.91243 17.8768 -3.33467 -3.64086 -2.84439 -0.362866 -0.357824 0.193566 -3.52978 
123 1.92588 5.07897 16.5966 -2.72467 -3.65416 -2.58044 -0.249854 -0.80617 -0.0874365 -3.53334 
124 4.03201 3.63721 16.5988 -3.35191 -3.03076 -2.57241 -0.488628 -0.296817 0.717697 -3.53335 
125 -0.152743 4.32822 17.8743 -3.44956 -4.74609 -3.10517 0.0398141 -0.910469 -0.102176 -3.53368 
126 -0.20496 4.32569 20.4318 -3.4784 -4.74065 -3.03053 0.0556636 -0.910901 -0.132842 -3.53367 
127 -0.266227 6.49691 19.1499 -2.87933 -4.39865 -2.69087 0.054561 -1.34916 -0.159956 -3.53367 
128 1.86396 5.10084 19.1534 -2.74134 -3.66993 -2.51642 -0.226357 -0.813761 -0.11548 -3.53333 
129 -0.344471 6.49233 21.7074 -2.91977 -4.40786 -2.62459 0.0723841 -1.35167 -0.203881 -3.53361 
130 3.987 3.68488 19.1556 -3.35379 -3.06151 -2.50771 -0.475764 -0.319898 0.704132 -3.53334 
131 1.92754 2.93536 20.4346 -3.33616 -3.65502 -2.76269 -0.34495 -0.369863 0.177837 -3.52975 
132 1.89154 2.9577 22.9942 -3.33902 -3.66472 -2.66055 -0.324569 -0.384189 0.159162 -3.52972 
133 1.80186 5.12172 21.7117 -2.76405 -3.68353 -2.43679 -0.201107 -0.823312 -0.147681 -3.5333 
134 3.94138 3.73175 21.7138 -3.35848 -3.09406 -2.42671 -0.458771 -0.346208 0.687445 -3.53331 
135 -0.256996 4.32249 22.9909 -3.51204 -4.72753 -2.93468 0.0699134 -0.911137 -0.167162 -3.53367 
136 -0.308831 4.31865 25.5521 -3.5468 -4.70416 -2.81304 0.0822618 -0.91129 -0.204951 -3.53368 
137 -0.42245 6.48671 24.2665 -2.96657 -4.41264 -2.53808 0.0888324 -1.35375 -0.253494 -3.53355 
138 1.73958 5.1416 24.2716 -2.78997 -3.6934 -2.33706 -0.173392 -0.835259 -0.184626 -3.53327 
139 -0.500136 6.48011 26.8276 -3.01638 -4.40829 -2.42714 0.103927 -1.35489 -0.306747 -3.53349 
140 3.89518 3.77781 24.2737 -3.36507 -3.12469 -2.32672 -0.438051 -0.375905 0.666375 -3.53328 
141 1.85535 2.97946 25.5558 -3.33888 -3.66664 -2.53228 -0.301411 -0.400547 0.137179 -3.52967 
142 1.819 3.00068 28.1199 -3.33102 -3.65437 -2.37518 -0.276217 -0.418163 0.112737 -3.52962 
143 1.67715 5.16051 26.8338 -2.81748 -3.69422 -2.21186 -0.144509 -0.849129 -0.22537 -3.53322 
144 3.84846 3.82305 26.8357 -3.36866 -3.15123 -2.20179 -0.413422 -0.409115 0.641346 -3.53324 
145 -0.360442 4.31425 28.1156 -3.57773 -4.66339 -2.66017 0.0922322 -0.91009 -0.244725 -3.53372 
146 -0.411806 4.30945 30.6822 -3.59402 -4.59424 -2.47306 0.0990853 -0.907757 -0.283612 -3.53381 
147 -0.577485 6.47271 29.3913 -3.0639 -4.38669 -2.28391 0.116754 -1.35435 -0.361747 -3.53347 
148 1.61467 5.17854 29.3986 -2.83974 -3.68102 -2.05879 -0.114978 -0.864379 -0.268043 -3.53317 
149 -0.654456 6.46477 31.958 -3.09746 -4.33759 -2.10521 0.126453 -1.35191 -0.414107 -3.53349 
150 3.80133 3.86753 29.4004 -3.36575 -3.16754 -2.04971 -0.386201 -0.444548 0.613008 -3.53317 
151 1.78259 3.02144 30.687 -3.30561 -3.61997 -2.18805 -0.250201 -0.434952 0.0886094 -3.52957 
152 1.74628 3.04191 33.2573 -3.25091 -3.55178 -1.97193 -0.22613 -0.447552 0.0687038 -3.52955 
153 1.55223 5.19593 31.9664 -2.84845 -3.6442 -1.87779 -0.0878477 -0.879183 -0.308097 -3.53311 
154 3.754 3.91136 31.968 -3.34471 -3.16228 -1.87017 -0.358304 -0.477736 0.583925 -3.53311 
155 -0.462891 4.30443 33.252 -3.58079 -4.48777 -2.2545 0.102388 -0.904395 -0.31572 -3.53397 
156 -0.513665 4.29941 35.8253 -3.52033 -4.33308 -2.01082 0.102767 -0.899649 -0.336841 -3.53424 
157 -0.731021 6.45666 34.5281 -3.09942 -4.24266 -1.88984 0.13235 -1.34757 -0.455475 -3.53363 
158 1.49003 5.21303 34.5375 -2.82604 -3.57143 -1.67033 -0.0654865 -0.889561 -0.338606 -3.53309 
159 -0.80712 6.44877 37.1019 -3.04876 -4.08936 -1.64877 0.134838 -1.33953 -0.481411 -3.53389 
160 3.7068 3.95479 34.539 -3.29203 -3.12296 -1.66344 -0.333406 -0.503785 0.559153 -3.53308 
161 1.71026 3.0623 35.831 -3.15148 -3.43988 -1.7353 -0.20607 -0.452571 0.0573009 -3.52962 
162 1.67467 3.08272 38.4077 -3.00282 -3.28128 -1.48791 -0.191903 -0.449195 0.0542665 -3.52978 
163 1.42828 5.23022 37.1119 -2.75329 -3.44998 -1.44085 -0.0503344 -0.890528 -0.353391 -3.53314 
164 3.66006 3.99811 37.1133 -3.18867 -3.03321 -1.43484 -0.314724 -0.517323 0.543886 -3.53314 
165 -0.564046 4.29445 38.4018 -3.4032 -4.13301 -1.75861 0.102265 -0.891062 -0.348468 -3.53459 
166 -0.613911 4.28938 40.9808 -3.23774 -3.90429 -1.51088 0.102178 -0.878714 -0.359641 -3.53494 
167 -0.882629 6.44117 39.679 -2.93407 -3.87666 -1.40197 0.133841 -1.32595 -0.494693 -3.53426 
168 1.36724 5.2477 39.6895 -2.62095 -3.27576 -1.2036 -0.0434722 -0.879882 -0.355696 -3.53332 
169 -0.957415 6.4336 42.2584 -2.76374 -3.62413 -1.16784 0.132438 -1.30718 -0.507601 -3.53462 
170 3.61405 4.04147 39.6907 -3.02516 -2.89008 -1.19882 -0.301935 -0.519142 0.537066 -3.5333 
171 1.63955 3.10308 40.9869 -2.81377 -3.08693 -1.23679 -0.181807 -0.443102 0.0515654 -3.53001 
172 1.60483 3.12324 43.5683 -2.59322 -2.86238 -0.981331 -0.173467 -0.440146 0.0408515 -3.53029 
173 1.30697 5.26532 42.2693 -2.43561 -3.05701 -0.968294 -0.0424078 -0.86446 -0.360495 -3.53357 
174 3.56875 4.08479 42.2704 -2.80836 -2.70012 -0.964812 -0.293423 -0.519135 0.527456 -3.53355 
175 -0.663224 4.28402 43.5618 -3.03491 -3.65673 -1.26541 0.104328 -0.863207 -0.378551 -3.53524 
176 -0.712125 4.27833 46.1443 -2.80764 -3.38759 -1.00292 0.107038 -0.846287 -0.4117 -3.5355 
177 -1.03152 6.42585 44.8391 -2.54561 -3.33893 -0.951999 0.131897 -1.28526 -0.525719 -3.53497 
178 1.24735 5.28292 44.8507 -2.20282 -2.79969 -0.735661 -0.0446528 -0.852667 -0.378783 -3.53388 
179 -1.10527 6.41823 47.4202 -2.28465 -3.01153 -0.765131 0.133015 -1.26455 -0.539912 -3.5353 
180 3.52396 4.12799 44.8517 -2.54543 -2.47261 -0.740175 -0.286958 -0.526246 0.506384 -3.53385 
181 1.57035 3.14319 46.1513 -2.34786 -2.61241 -0.704417 -0.166642 -0.447871 0.0136194 -3.53055 
182 1.53601 3.16334 48.7363 -2.07743 -2.35305 -0.33412 -0.179704 -0.467864 -0.0243435 -3.53018 
183 1.18797 5.30052 47.4329 -1.93281 -2.50033 -0.504445 -0.0601502 -0.857298 -0.42345 -3.53413 
184 3.47945 4.17112 47.4336 -2.23049 -2.21664 -0.531817 -0.282788 -0.550798 0.46256 -3.53405 
185 -0.761023 4.27336 48.7283 -2.59045 -3.06531 -0.656503 0.0991247 -0.8328 -0.417985 -3.53519 
186 -0.811621 4.26877 51.3169 -1.98837 -2.35049 0.315438 0.0838702 -0.843014 -0.653309 -3.53804 
187 -1.17889 6.41384 50.0002 -2.05079 -2.54038 -0.327052 0.0819969 -1.2708 -0.619195 -3.53573 
188 1.12775 5.31799 50.0156 -1.56481 -2.07388 -0.0125726 -0.108301 -0.939763 -0.592433 -3.53486 
189 -1.25707 6.40546 52.5877 -1.61243 -2.48678 0.643361 0.175899 -1.31641 -0.612941 -3.53281 
190 3.43505 4.21346 50.0156 -1.75456 -1.84857 -0.0317116 -0.307248 -0.663478 0.315265 -3.53492 
191 1.50027 3.18358 51.3264 -1.43148 -1.70085 0.661439 -0.172596 -0.549599 -0.133045 -3.53271 
192 1.46587 3.20964 53.9052 0.0266985 0.953982 -0.795862 0.566292 -0.561022 0.138921 -3.37565 
193 1.06597 5.33731 52.6041 -1.24916 -1.89854 0.441459 -0.237007 -0.801288 -0.410797 -3.52779 
194 3.38747 4.26008 52.6041 -1.41007 -1.71365 0.389791 -0.390626 -0.639388 0.587406 -3.52746 
195 -0.866323 4.2769 53.8949 -0.0507939 -0.206166 -1.18031 0.0793943 -1.26167 1.02745 -3.38132 
196 1.3298 4.1174 -56.3442 5.06943 2.90553 1.60239 -1.25476 -0.273887 0.110272 -2.79034 
197 -1.33605 6.40133 55.1665 4.17993 2.79753 1.28993 0.319901 -1.52322 0.197952 -3.26107 
198 1.00488 5.36129 55.1754 5.64224 6.63191 2.70784 0.369934 -0.636441 -0.0325243 -3.15047 
199 1.98371 6.26223 -55.1334 6.93993 9.11552 2.92924 0.134174 -0.847915 -0.525694 -3.02309 
200 3.34328 4.30996 55.1754 5.53067 7.35783 2.8692 0.118678 -0.278572 0.56269 -3.15115 
201 2.87095 2.09325 -56.362 4.04254 6.0065 1.88108 -3.16454 0.252679 0.341822 -2.79939 
202 2.84551 2.1252 -53.8874 0.165055 0.763313 -3.02658 -0.982081 -0.732813 -0.162359 -3.51266 
203 3.53831 4.21674 -55.1525 6.03166 6.27392 1.75928 0.302432 -1.21948 -0.04447 -3.1433 
204 5.07312 2.13635 -55.1525 6.04997 7.03888 2.00308 0.446054 -0.528111 0.0805527 -3.14511 
205 1.29262 4.16451 -53.8815 0.861208 -0.348159 -3.67527 -0.408823 -0.573897 0.839 -3.51412 
206 1.24176 4.17585 -51.3147 -1.28766 -1.91193 -0.380506 -0.21493 -0.88279 0.219476 -3.53907 
207 1.90264 6.26187 -52.5941 -0.918359 -1.45701 -0.573226 -0.184231 -1.16814 0.819923 -3.52793 
208 3.4607 4.22944 -52.6036 -0.749422 -0.926092 0.0950844 -0.677584 -0.496288 0.191204 -3.5302 
209 1.82403 6.27282 -50.0101 -1.64427 -2.33776 -0.274684 -0.192929 -1.26696 0.437232 -3.53678 
210 5.01221 2.17771 -52.6036 -1.34228 -0.348853 0.0542718 -0.502641 0.0190047 0.991416 -3.52953 
211 2.80522 2.14769 -51.32 -1.10421 -0.94779 -0.122964 -0.278433 -0.33529 0.262166 -3.53416 
212 2.77299 2.17459 -48.7408 -1.99167 -1.84898 -0.574518 -0.294516 -0.184806 0.352845 -3.53085 
213 3.40036 4.25787 -50.02 -1.44219 -1.6641 -0.159392 -0.411662 -0.691891 0.294381 -3.53493 
214 4.971 2.23184 -50.02 -1.85689 -1.28068 -0.131056 -0.297741 0.0373769 0.840829 -3.53497 
215 1.19049 4.18053 -48.7357 -2.20592 -2.77135 -0.812409 -0.184079 -0.820538 0.29172 -3.53641 
216 1.14201 4.18674 -46.1545 -2.6754 -3.20554 -1.00724 -0.169708 -0.813421 0.407759 -3.53604 
217 1.75012 6.27893 -47.4308 -2.12934 -2.84286 -0.701755 -0.21838 -1.22386 0.553245 -3.53589 
218 3.34639 4.2876 -47.4415 -1.91816 -2.21187 -0.592922 -0.302639 -0.612726 0.349063 -3.53416 
219 1.67719 6.29087 -44.85 -2.50709 -3.20205 -0.891065 -0.207049 -1.23061 0.609811 -3.53533 
220 4.9361 2.28444 -47.4407 -2.34107 -1.79189 -0.567396 -0.212634 0.132918 0.871694 -3.5342 
221 2.74412 2.20193 -46.1599 -2.39925 -2.27332 -0.770072 -0.233663 -0.133902 0.402817 -3.53074 
222 2.71665 2.2306 -43.5783 -2.71673 -2.59378 -0.983008 -0.217953 -0.128542 0.421131 -3.53036 
223 3.2939 4.31987 -44.8611 -2.26644 -2.57583 -0.745661 -0.263409 -0.605479 0.382121 -3.53392 
224 4.90419 2.33752 -44.8601 -2.6894 -2.14586 -0.745845 -0.178749 0.163857 0.901671 -3.53391 
225 1.09376 4.19534 -43.5729 -3.0183 -3.52476 -1.23449 -0.15719 -0.825063 0.431823 -3.53552 
226 1.04509 4.20461 -40.992 -3.28068 -3.79842 -1.47463 -0.154516 -0.841266 0.438027 -3.53507 
227 1.60413 6.30443 -42.2691 -2.79388 -3.50773 -1.11764 -0.207243 -1.25145 0.624534 -3.53483 
228 3.24201 4.35358 -42.2803 -2.54455 -2.87131 -0.947338 -0.247067 -0.612261 0.398029 -3.53359 
229 1.53033 6.31866 -39.6895 -3.00557 -3.77458 -1.35987 -0.214792 -1.27302 0.628035 -3.53437 
230 4.87349 2.39151 -42.2792 -2.97786 -2.42688 -0.952569 -0.168323 0.171165 0.925579 -3.53357 
231 2.68938 2.26 -40.9974 -2.97491 -2.85334 -1.2135 -0.215229 -0.130161 0.434348 -3.53004 
232 2.66194 2.29002 -38.418 -3.1888 -3.06769 -1.45586 -0.220116 -0.131779 0.445708 -3.52978 
233 3.19007 4.38835 -39.7005 -2.76386 -3.10984 -1.17179 -0.241969 -0.620335 0.407518 -3.53331 
234 4.8431 2.44649 -39.6994 -3.21636 -2.64284 -1.17799 -0.169214 0.173126 0.946928 -3.5333 
235 0.995754 4.21415 -38.4128 -3.48126 -4.04184 -1.72446 -0.159122 -0.85599 0.439896 -3.53465 
236 0.945767 4.22393 -35.836 -3.62164 -4.25091 -1.97747 -0.169328 -0.86861 0.434889 -3.53428 
237 1.45565 6.33339 -37.1122 -3.14728 -3.99705 -1.61153 -0.226465 -1.29104 0.622946 -3.53396 
238 3.13788 4.42408 -37.1227 -2.92555 -3.29277 -1.40647 -0.246303 -0.629075 0.409527 -3.53312 
239 1.3802 6.34866 -34.5379 -3.21964 -4.16505 -1.85708 -0.238037 -1.30551 0.604519 -3.53365 
240 4.81281 2.50245 -37.1215 -3.40468 -2.79848 -1.41052 -0.180379 0.171095 0.96107 -3.53311 
241 2.6343 2.32061 -35.8409 -3.3575 -3.23578 -1.70052 -0.232213 -0.135551 0.451521 -3.5296 
242 2.60649 2.35171 -33.2667 -3.47873 -3.35504 -1.93931 -0.251496 -0.144726 0.448019 -3.52951 
243 3.08541 4.46065 -34.5478 -3.02742 -3.41758 -1.63606 -0.258595 -0.642342 0.397797 -3.53303 
244 4.78256 2.55929 -34.5465 -3.53539 -2.89416 -1.63922 -0.201197 0.159159 0.961827 -3.53303 
245 0.895247 4.23396 -33.2623 -3.70093 -4.41685 -2.22472 -0.18123 -0.878546 0.419884 -3.53398 
246 0.844278 4.24415 -30.6919 -3.72774 -4.53785 -2.45242 -0.192071 -0.886481 0.393173 -3.53377 
247 1.3041 6.36433 -31.9671 -3.23144 -4.2767 -2.0805 -0.247074 -1.31668 0.569838 -3.53347 
248 3.03258 4.49778 -31.9762 -3.07529 -3.49258 -1.84927 -0.278163 -0.660943 0.371926 -3.53303 
249 1.22743 6.38005 -29.3999 -3.20241 -4.34138 -2.27168 -0.251353 -1.32481 0.523189 -3.53341 
250 4.75223 2.61672 -31.9747 -3.61431 -2.94108 -1.85335 -0.230676 0.135028 0.950194 -3.53302 
251 2.57846 2.38313 -30.6957 -3.55203 -3.4318 -2.16207 -0.276549 -0.160269 0.435063 -3.5295 
252 2.55006 2.41466 -28.128 -3.58661 -3.47371 -2.35944 -0.303757 -0.179932 0.415206 -3.52954 
253 2.97925 4.53507 -29.4078 -3.08063 -3.53122 -2.03898 -0.301382 -0.682119 0.336183 -3.53308 
254 4.72155 2.67443 -29.4062 -3.65083 -2.95327 -2.04328 -0.265352 0.101327 0.9303 -3.53307 
255 0.792925 4.2543 -28.1249 -3.71545 -4.61855 -2.64836 -0.199533 -0.892964 0.357845 -3.53366 
256 0.741236 4.26417 -25.561 -3.6807 -4.67012 -2.81118 -0.203112 -0.897734 0.318216 -3.53361 
257 1.15028 6.39543 -26.8359 -3.15024 -4.37355 -2.4257 -0.251255 -1.33008 0.469572 -3.53342 
258 2.92527 4.57211 -26.8426 -3.05843 -3.54832 -2.20126 -0.325052 -0.703156 0.296259 -3.53314 
259 1.07271 6.41013 -24.2746 -3.08851 -4.38509 -2.54713 -0.246807 -1.33284 0.415003 -3.53347 
260 4.69026 2.73211 -26.8408 -3.65701 -2.94576 -2.20591 -0.301403 0.0630021 0.906502 -3.53312 
261 2.5212 2.44606 -25.5634 -3.59424 -3.49532 -2.52798 -0.33101 -0.200942 0.3924 -3.52958 
262 2.49183 2.47717 -23.0014 -3.58349 -3.50298 -2.66501 -0.355526 -0.219936 0.370526 -3.52963 
263 2.87059 4.60862 -24.2801 -3.02085 -3.5525 -2.33452 -0.345776 -0.721353 0.257019 -3.5332 
264 4.65814 2.78954 -24.2782 -3.64413 -2.92899 -2.33979 -0.335935 0.0253709 0.882894 -3.53317 
265 0.689281 4.27356 -22.9997 -3.63434 -4.70113 -2.94178 -0.20242 -0.900417 0.278546 -3.5336 
266 0.637107 4.28232 -20.4405 -3.5866 -4.71887 -3.04468 -0.197401 -0.90211 0.241581 -3.53361 
267 0.994816 6.42392 -21.7155 -3.02704 -4.38541 -2.63955 -0.238594 -1.33398 0.363107 -3.53354 
268 2.81523 4.64441 -21.7199 -2.97704 -3.55102 -2.44173 -0.362637 -0.736131 0.220782 -3.53324 
269 0.916641 6.43666 -19.1582 -2.9703 -4.37991 -2.7086 -0.22725 -1.33434 0.315575 -3.53361 
270 4.62511 2.84659 -21.7179 -3.62053 -2.90942 -2.44568 -0.367389 -0.0101593 0.861144 -3.53322 
271 2.4619 2.5079 -20.4416 -3.56207 -3.50513 -2.77503 -0.376087 -0.236062 0.350632 -3.52968 
272 2.43144 2.53817 -17.8837 -3.53737 -3.50519 -2.86135 -0.392801 -0.249904 0.333103 -3.52972 
273 2.75919 4.67937 -19.1616 -2.93265 -3.54756 -2.52617 -0.374785 -0.747465 0.188504 -3.53328 
274 4.59114 2.90316 -19.1595 -3.59203 -2.89328 -2.53108 -0.395063 -0.0418083 0.842458 -3.53325 
275 0.584756 4.29039 -17.8831 -3.54168 -4.72936 -3.12388 -0.189131 -0.903209 0.208146 -3.53362 
276 0.532261 4.29773 -15.3271 -3.50222 -4.73494 -3.1829 -0.178439 -0.903612 0.178332 -3.53364 
277 0.838229 6.4483 -16.6022 -2.92212 -4.37323 -2.76166 -0.213535 -1.33452 0.273197 -3.53367 
278 2.70252 4.71347 -16.6048 -2.89118 -3.54537 -2.59228 -0.382491 -0.756125 0.160578 -3.5333 
279 0.759607 6.45881 -14.0473 -2.88072 -4.36537 -2.7997 -0.197687 -1.33444 0.235092 -3.53373 
280 4.55623 2.95924 -16.6027 -3.56133 -2.87979 -2.59709 -0.418713 -0.0693681 0.826645 -3.53328 
281 2.40048 2.56799 -15.3272 -3.51008 -3.50663 -2.92742 -0.405817 -0.261637 0.318498 -3.52975 
282 2.36903 2.59734 -12.7718 -3.48463 -3.50943 -2.9781 -0.415258 -0.271015 0.306151 -3.52977 
283 2.64526 4.74671 -14.0492 -2.85324 -3.54385 -2.64305 -0.385961 -0.76325 0.135835 -3.53332 
284 4.5204 3.0148 -14.0471 -3.5314 -2.87156 -2.64537 -0.438696 -0.0935231 0.813691 -3.5333 
285 0.479636 4.30434 -12.772 -3.4694 -4.73937 -3.227 -0.165195 -0.903805 0.151801 -3.53365 
286 0.426941 4.31021 -10.2178 -3.44232 -4.74142 -3.25934 -0.150809 -0.904268 0.127454 -3.53367 
287 0.680837 6.4682 -11.4932 -2.84785 -4.36008 -2.82745 -0.180579 -1.33426 0.200572 -3.53377 
288 2.58745 4.77908 -11.4946 -2.82017 -3.54527 -2.68103 -0.385936 -0.768219 0.114459 -3.53334 
289 0.601945 6.47647 -8.93969 -2.82188 -4.35558 -2.84709 -0.162431 -1.33437 0.168837 -3.5338 
290 4.48371 3.06982 -11.4923 -3.50398 -2.86748 -2.68239 -0.455722 -0.11411 0.802726 -3.53332 
291 2.33715 2.62622 -10.2173 -3.46045 -3.51309 -3.01422 -0.421758 -0.279068 0.295007 -3.52979 
292 2.30486 2.65463 -7.66341 -3.43851 -3.51851 -3.03854 -0.425503 -0.286064 0.285472 -3.52981 
293 2.52916 4.81059 -8.94058 -2.79276 -3.54811 -2.70763 -0.383033 -0.772153 0.0950419 -3.53334 
294 4.44619 3.1243 -8.93833 -3.47806 -2.8675 -2.70851 -0.469577 -0.132767 0.793418 -3.53333 
295 0.374191 4.31535 -7.66414 -3.42077 -4.74335 -3.28199 -0.134899 -0.90418 0.106215 -3.53367 
296 0.321419 4.31978 -5.11087 -3.4043 -4.74446 -3.29551 -0.118417 -0.904231 0.0858409 -3.53368 
297 0.522975 6.48367 -6.38657 -2.80235 -4.35221 -2.85991 -0.143472 -1.33464 0.140042 -3.53383 
298 2.47043 4.84126 -6.38706 -2.76915 -3.55217 -2.7248 -0.377742 -0.774859 0.0774644 -3.53336 
299 0.443952 6.48978 -3.83372 -2.78799 -4.35001 -2.86701 -0.124232 -1.33486 0.11233 -3.53384 
300 4.4079 3.17823 -6.38479 -3.4547 -2.87115 -2.72499 -0.481088 -0.149343 0.785501 -3.53334 
301 2.2722 2.68258 -5.10993 -3.41873 -3.52512 -3.0541 -0.427413 -0.292188 0.276912 -3.52982 
302 2.23918 2.71005 -2.55672 -3.40093 -3.53308 -3.06183 -0.427364 -0.297845 0.269493 -3.52983 
303 2.4113 4.87109 -3.83385 -2.74958 -3.55765 -2.73512 -0.370457 -0.777338 0.0610253 -3.53336 
304 4.36888 3.2316 -3.83158 -3.43427 -2.87746 -2.73451 -0.490413 -0.165043 0.778621 -3.53335 
305 0.268631 4.32351 -2.55781 -3.39259 -4.74515 -3.30243 -0.101397 -0.904437 0.0671814 -3.53369 
306 0.364895 6.49484 -1.28102 -2.77889 -4.35013 -2.86976 -0.10456 -1.33546 0.0856084 -3.53385 
307 2.35178 4.90009 -1.28082 -2.73402 -3.56488 -2.73945 -0.361454 -0.779777 0.0448444 -3.53337 
308 4.32914 3.28441 -1.27854 -3.41613 -2.88715 -2.73834 -0.497951 -0.179925 0.772353 -3.53336 
309 2.43672 7.09216 -0.00419696 -2.21193 -3.36425 -2.40826 -0.321012 -1.18804 -0.171464 -3.53293 
310 0.43499 8.66964 -0.00446591 -2.24805 -4.02488 -2.50246 -0.103822 -1.7257 0.0931038 -3.5336 