ITEM: TIMESTEP
203
ITEM: NUMBER OF ATOMS
37664
ITEM: BOX BOUNDS ff ff ff
-100 100
-100 100
-156.15 156.15
ITEM: ATOMS id x y z v_peratom_sxx v_peratom_syy v_peratom_szz v_peratom_sxy v_peratom_sxz v_peratom_syz c_atomPE 
1 -0.00599739 -0.000859633 -0.010537 -5.18612 -5.16959 -9.53321 -0.0245315 0.152228 -0.0683006 -3.51531 
2 -0.00709393 -0.000704425 2.54293 -5.17331 -5.16413 -9.5183 -0.0245872 0.151862 -0.0670444 -3.51537 
3 -0.00811349 -0.00055622 5.09661 -5.15694 -5.15481 -9.49413 -0.0242133 0.149741 -0.0650253 -3.51548 
4 -0.00904982 -0.000400089 7.65063 -5.13676 -5.14139 -9.46014 -0.0235174 0.146278 -0.0622298 -3.51563 
5 -0.00989198 -0.000220543 10.2052 -5.11222 -5.12328 -9.41507 -0.0226215 0.141987 -0.0585986 -3.51584 
6 -0.0106247 -2.63695e-06 12.7603 -5.08235 -5.09951 -9.3568 -0.021658 0.137389 -0.0540795 -3.5161 
7 -0.0112306 0.000265722 15.3163 -5.04561 -5.06856 -9.28225 -0.0207532 0.132911 -0.0486993 -3.51644 
8 -0.0116932 0.000590464 17.8735 -4.99971 -5.02814 -9.18719 -0.0200033 0.128796 -0.0426379 -3.51687 
9 -0.0120004 0.000967915 20.432 -4.94139 -4.97501 -9.06633 -0.0194469 0.125062 -0.0362727 -3.51741 
10 -0.0121453 0.00138262 22.9923 -4.8662 -4.90472 -8.91349 -0.0190526 0.121553 -0.0301568 -3.51809 
11 -0.0121256 0.00180779 25.5547 -4.76852 -4.81157 -8.72249 -0.0187317 0.118078 -0.0249173 -3.51893 
12 -0.0119397 0.00220887 28.1198 -4.6419 -4.68896 -8.48885 -0.0183766 0.114562 -0.0211008 -3.51995 
13 -0.0115832 0.00254904 30.6878 -4.48058 -4.53095 -8.21298 -0.0179024 0.111128 -0.0190314 -3.52113 
14 -0.0110457 0.00279479 33.2591 -4.28322 -4.33599 -7.90363 -0.0172687 0.108093 -0.018744 -3.52241 
15 -0.0103085 0.00291862 35.8335 -4.05787 -4.11199 -7.57823 -0.0164727 0.105892 -0.020042 -3.52366 
16 -0.0093437 0.00289751 38.4106 -3.82061 -3.87491 -7.25486 -0.0155186 0.10496 -0.0226558 -3.52474 
17 -0.00811099 0.00270735 40.9902 -3.58291 -3.63604 -6.93954 -0.014377 0.105655 -0.0264221 -3.52562 
18 -0.00654401 0.00231563 43.572 -3.34565 -3.39583 -6.61926 -0.0129371 0.108536 -0.0313686 -3.52633 
19 -0.0045266 0.00167337 46.1562 -3.08419 -3.12806 -6.25793 -0.0108449 0.114411 -0.0375658 -3.52706 
20 -0.001913 0.000705189 48.7432 -2.71146 -2.73631 -5.82304 -0.00565444 0.120927 -0.0447852 -3.52794 
21 5.95933e-07 -4.11185e-08 51.3317 -1.92194 -1.92001 -4.90744 0.00035103 -0.00637896 0.00237744 -3.53202 
22 4.01304e-07 -1.42881e-06 53.9138 -0.852939 -0.852982 -8.91786 -7.87766e-06 -9.1214e-05 -7.17961e-05 -3.48168 
23 8.71386e-07 -1.98378e-06 56.3885 1.68524 1.68527 1.87556 -6.84859e-05 7.97145e-05 8.08591e-06 -2.55581 
24 -1.23087e-07 -1.12453e-06 -53.8876 -2.60497 -2.60507 -6.54898 -2.77208e-05 3.09642e-05 -6.53258e-05 -3.40184 
25 1.02659e-07 -1.55837e-06 -51.3239 -2.08098 -2.08456 -5.61803 -0.000530972 -0.00906772 0.00407321 -3.52878 
26 0.00243903 -0.0010929 -48.7474 -2.81274 -2.7764 -6.28262 0.0032649 0.152917 -0.0685857 -3.52592 
27 0.00536376 -0.00252204 -46.167 -3.1542 -3.09812 -6.49159 0.00668015 0.130445 -0.0642852 -3.52634 
28 0.00697734 -0.00358994 -43.5858 -3.43037 -3.37028 -6.74733 0.00834684 0.120868 -0.0565437 -3.52592 
29 0.00778172 -0.00435633 -41.0055 -3.67745 -3.61632 -7.02521 0.00943625 0.119212 -0.0485549 -3.52534 
30 0.00809052 -0.00487578 -38.4267 -3.91847 -3.85696 -7.32137 0.00999624 0.121083 -0.0412475 -3.52455 
31 0.00809127 -0.00518192 -35.8501 -4.15624 -4.09404 -7.63362 0.0100727 0.123377 -0.0352799 -3.52353 
32 0.00788707 -0.00529763 -33.276 -4.38261 -4.31905 -7.95234 0.00970794 0.124287 -0.0310208 -3.52233 
33 0.00752302 -0.00523956 -30.7049 -4.58521 -4.5196 -8.26106 0.00886275 0.123076 -0.0286677 -3.52108 
34 0.00700412 -0.00502276 -28.1369 -4.75532 -4.68735 -8.54308 0.0073726 0.120044 -0.0284197 -3.51987 
35 0.00631453 -0.00466832 -25.5719 -4.89089 -4.82093 -8.78744 0.00503405 0.11638 -0.0304434 -3.5188 
36 0.00543919 -0.00420952 -23.0097 -4.99444 -4.92368 -8.99008 0.00177524 0.113693 -0.0346415 -3.51788 
37 0.00438146 -0.00369088 -20.4497 -5.07055 -5.00082 -9.15213 -0.00223528 0.113313 -0.0404894 -3.51714 
38 0.00316901 -0.00315978 -17.8916 -5.12429 -5.05768 -9.27766 -0.00663022 0.11578 -0.047123 -3.51656 
39 0.00184764 -0.00265632 -15.335 -5.16051 -5.09888 -9.37192 -0.0109836 0.12079 -0.0536166 -3.51611 
40 0.000469468 -0.0022069 -12.7796 -5.18333 -5.12815 -9.44027 -0.0149396 0.127461 -0.0592449 -3.51579 
41 -0.000917842 -0.00182334 -10.225 -5.19607 -5.14828 -9.48755 -0.0182722 0.134693 -0.0635986 -3.51556 
42 -0.0022774 -0.00150584 -7.67098 -5.20124 -5.16129 -9.51778 -0.0208812 0.141449 -0.0665616 -3.51541 
43 -0.00358488 -0.00124713 -5.11735 -5.2006 -5.16861 -9.53408 -0.0227584 0.146922 -0.0682157 -3.51532 
44 -0.00482685 -0.00103601 -2.56392 -5.19533 -5.17118 -9.53873 -0.0239507 0.150592 -0.0687352 -3.51529 
45 0.0892037 2.15926 1.26555 -4.06664 -5.13144 -3.82906 -0.0743216 -0.395286 0.000977209 -3.52911 
46 0.0620206 2.16033 3.81903 -4.0563 -5.1305 -3.81518 -0.0594525 -0.395212 -0.00847389 -3.52913 
47 0.0349113 2.16106 6.37277 -4.04807 -5.12756 -3.79357 -0.0443374 -0.395536 -0.0179239 -3.52915 
48 0.00788921 2.16147 8.92694 -4.04188 -5.12241 -3.76347 -0.0292032 -0.396152 -0.0275807 -3.52918 
49 -0.0190269 2.16157 11.4817 -4.03779 -5.11463 -3.72352 -0.0143071 -0.39694 -0.037686 -3.52921 
50 -0.0458134 2.16138 14.0371 -4.0359 -5.10346 -3.6717 5.64044e-05 -0.397774 -0.0485662 -3.52926 
51 -0.0724438 2.16089 16.5936 -4.03622 -5.08762 -3.60522 0.0135627 -0.398534 -0.0606664 -3.52932 
52 -0.0988914 2.16012 19.1512 -4.03839 -5.06513 -3.52048 0.0258717 -0.399115 -0.074537 -3.52939 
53 -0.125133 2.15906 21.7105 -4.04122 -5.03296 -3.41312 0.0366399 -0.399431 -0.0907292 -3.52947 
54 -0.15115 2.15771 24.2716 -4.042 -4.9867 -3.2783 0.0455238 -0.399406 -0.109546 -3.52959 
55 -0.176931 2.15609 26.8351 -4.03555 -4.9202 -3.11157 0.0521939 -0.398939 -0.130607 -3.52974 
56 -0.202464 2.1542 29.4014 -4.01307 -4.82564 -2.91048 0.0564236 -0.397861 -0.152273 -3.52993 
57 -0.227731 2.15212 31.9707 -3.96196 -4.69491 -2.67721 0.0583237 -0.395895 -0.171357 -3.5302 
58 -0.252692 2.14992 34.5434 -3.86914 -4.52367 -2.42068 0.0586537 -0.392631 -0.184301 -3.53055 
59 -0.277283 2.14761 37.1192 -3.72981 -4.31726 -2.15492 0.0588182 -0.38753 -0.190783 -3.53096 
60 -0.301415 2.1451 39.6976 -3.55291 -4.09012 -1.89105 0.0601944 -0.38011 -0.195858 -3.53136 
61 -0.325009 2.1423 42.2783 -3.35103 -3.85246 -1.62884 0.0633616 -0.370348 -0.205741 -3.53172 
62 -0.348012 2.13909 44.861 -3.13195 -3.60039 -1.35585 0.067505 -0.35811 -0.227183 -3.532 
63 -0.370404 2.13567 47.4457 -2.8692 -3.28386 -1.06515 0.068903 -0.342492 -0.252324 -3.53228 
64 -0.392512 2.13371 50.032 -2.40282 -2.79969 -0.463344 0.0436084 -0.38582 -0.218321 -3.53328 
65 -0.418483 2.1304 52.6263 -1.76613 -2.00452 -0.560695 0.0452895 -0.308734 -0.730529 -3.52455 
66 -0.44812 2.14653 55.1778 6.97734 7.73868 2.43043 0.0331972 -0.597252 1.76985 -3.02528 
67 0.649859 2.05055 -55.162 1.38992 0.843005 -0.676697 -0.1882 -0.0991728 1.20793 -3.26035 
68 0.633027 2.08274 -52.6122 -1.11348 -2.21943 -0.458209 -0.374707 -0.489006 -0.161733 -3.5357 
69 0.607028 2.08678 -50.0319 -2.01913 -2.6074 -0.934445 -0.141113 -0.398013 0.0732975 -3.53404 
70 0.585208 2.08755 -47.4546 -2.73969 -3.11816 -1.31796 -0.127318 -0.339929 0.146545 -3.53286 
71 0.562998 2.09044 -44.8736 -3.17845 -3.48466 -1.47167 -0.10166 -0.348243 0.192384 -3.53217 
72 0.539884 2.09425 -42.2927 -3.48195 -3.76498 -1.69514 -0.088701 -0.358464 0.20753 -3.53171 
73 0.515987 2.09844 -39.7131 -3.72737 -4.01552 -1.93913 -0.0839241 -0.367852 0.21765 -3.53128 
74 0.491434 2.10287 -37.1352 -3.93101 -4.24793 -2.1954 -0.0857161 -0.376113 0.225295 -3.53083 
75 0.466348 2.10754 -34.5599 -4.09047 -4.45732 -2.45743 -0.0927995 -0.383689 0.227722 -3.53039 
76 0.440825 2.11243 -31.9875 -4.20121 -4.63407 -2.71375 -0.103374 -0.391101 0.221934 -3.53001 
77 0.414921 2.11749 -29.4183 -4.26541 -4.77303 -2.95097 -0.115363 -0.398242 0.207592 -3.52972 
78 0.388661 2.12262 -26.8523 -4.29194 -4.87636 -3.15894 -0.12695 -0.404325 0.186968 -3.5295 
79 0.362067 2.12767 -24.2892 -4.29163 -4.95064 -3.33303 -0.136731 -0.408481 0.163053 -3.52935 
80 0.335178 2.13252 -21.7285 -4.27428 -5.00335 -3.47342 -0.143657 -0.410334 0.138401 -3.52925 
81 0.308055 2.13707 -19.1699 -4.24767 -5.04095 -3.5833 -0.147056 -0.41012 0.114825 -3.52919 
82 0.280766 2.14126 -16.6129 -4.21741 -5.06819 -3.66711 -0.146708 -0.408444 0.0933956 -3.52916 
83 0.25338 2.14505 -14.0572 -4.18717 -5.08825 -3.72945 -0.142815 -0.405977 0.0745488 -3.52913 
84 0.225952 2.14841 -11.5024 -4.1591 -5.10316 -3.77438 -0.13586 -0.403276 0.0582502 -3.52912 
85 0.198522 2.15136 -8.94822 -4.13418 -5.11416 -3.80523 -0.126437 -0.40073 0.0441736 -3.52911 
86 0.171119 2.15391 -6.39452 -4.11269 -5.12206 -3.82455 -0.115129 -0.398575 0.0318595 -3.5291 
87 0.143759 2.15606 -3.84109 -4.0945 -5.12737 -3.83422 -0.102429 -0.396933 0.0208292 -3.5291 
88 0.116452 2.15784 -1.28778 -4.07927 -5.13043 -3.83549 -0.0887272 -0.395842 0.0106526 -3.5291 
89 0.211819 4.32598 -0.0110935 -3.40504 -4.74176 -3.29558 -0.0993017 -0.88578 0.0465351 -3.53372 
90 0.281035 6.49825 1.26565 -2.78599 -4.35112 -2.85915 -0.100566 -1.32203 0.061452 -3.5339 
91 2.2018 2.73595 -0.0082572 -3.40356 -3.53098 -3.06626 -0.43612 -0.28901 0.262419 -3.52982 
92 2.16751 2.76254 2.54507 -3.38462 -3.54429 -3.05709 -0.43168 -0.294612 0.255176 -3.52982 
93 2.2872 4.92714 1.26742 -2.73361 -3.56453 -2.74085 -0.361139 -0.769423 0.0340631 -3.53337 
94 4.28408 3.3352 1.27095 -3.41475 -2.89275 -2.73783 -0.511826 -0.186951 0.764068 -3.53335 
95 0.158409 4.3283 2.54211 -3.397 -4.74391 -3.28778 -0.0802587 -0.886079 0.0282643 -3.53373 
96 0.105061 4.32993 5.09551 -3.39267 -4.74596 -3.27412 -0.0609166 -0.886657 0.00980571 -3.53373 
97 0.201396 6.50113 3.81866 -2.78247 -4.35501 -2.85077 -0.0787125 -1.323 0.0351995 -3.53389 
98 2.22642 4.95446 3.8207 -2.72099 -3.57691 -2.72994 -0.347432 -0.771736 0.0183317 -3.53337 
99 0.121825 6.50295 6.37189 -2.78316 -4.36024 -2.83789 -0.0566633 -1.32428 0.00836722 -3.53388 
100 4.24245 3.38693 3.82421 -3.39618 -2.90973 -2.72689 -0.514373 -0.201279 0.758352 -3.53336 
101 2.13294 2.78866 5.09857 -3.3677 -3.55871 -3.04144 -0.425524 -0.300627 0.247741 -3.52983 
102 2.09811 2.8143 7.6524 -3.35282 -3.57416 -3.01891 -0.417659 -0.307147 0.239914 -3.52982 
103 2.16535 4.98095 6.37421 -2.71168 -3.59058 -2.71318 -0.332068 -0.774443 0.00196713 -3.53337 
104 4.20018 3.43807 6.37769 -3.37988 -2.92918 -2.71001 -0.514838 -0.216031 0.752392 -3.53336 
105 0.0517926 4.33087 7.64923 -3.39202 -4.7479 -3.25415 -0.0414254 -0.887473 -0.0092159 -3.53373 
106 -0.00137367 4.33114 10.2034 -3.39524 -4.74966 -3.22704 -0.0219681 -0.888476 -0.0292055 -3.53373 
107 0.0423502 6.50373 8.92548 -2.78825 -4.3669 -2.82001 -0.0345353 -1.32588 -0.0195488 -3.53386 
108 2.10403 5.00658 8.92809 -2.70586 -3.60549 -2.69 -0.315037 -0.777663 -0.0154171 -3.53337 
109 -0.0369967 6.50347 11.4795 -2.79816 -4.37503 -2.79628 -0.0124912 -1.32781 -0.0491155 -3.53384 
110 4.15731 3.48861 8.93153 -3.36596 -2.95113 -2.68659 -0.5131 -0.231485 0.745929 -3.53337 
111 2.06302 2.83947 10.2067 -3.34009 -3.59052 -2.98863 -0.408032 -0.314269 0.231477 -3.52982 
112 2.02769 2.86416 12.7616 -3.3297 -3.60756 -2.94918 -0.396532 -0.322137 0.222153 -3.52981 
113 2.04247 5.03134 11.4825 -2.70383 -3.62156 -2.65942 -0.296295 -0.781543 -0.0342704 -3.53337 
114 4.11385 3.53853 11.4859 -3.35463 -2.97564 -2.65563 -0.508947 -0.247961 0.738658 -3.53337 
115 -0.0544095 4.33075 12.7582 -3.40273 -4.75101 -3.19143 -0.00277452 -0.889595 -0.050643 -3.53372 
116 -0.107282 4.32969 15.3138 -3.41497 -4.75145 -3.14541 0.0158785 -0.890735 -0.0741137 -3.53372 
117 -0.116178 6.50216 14.0342 -2.81351 -4.38459 -2.76542 0.00925394 -1.33005 -0.0809996 -3.5338 
118 1.9807 5.05522 14.0376 -2.70608 -3.63853 -2.61996 -0.275763 -0.786284 -0.055145 -3.53336 
119 -0.19515 6.49981 16.5897 -2.83502 -4.39525 -2.72555 0.0304413 -1.33253 -0.115979 -3.53376 
120 4.06981 3.58779 14.0409 -3.34615 -3.00275 -2.61564 -0.50208 -0.265857 0.730174 -3.53336 
121 1.99216 2.88834 15.3173 -3.32184 -3.62488 -2.89858 -0.382987 -0.330974 0.211558 -3.5298 
122 1.95643 2.91201 17.8741 -3.31654 -3.64172 -2.83415 -0.367172 -0.341099 0.199177 -3.52978 
123 1.91875 5.07818 16.5935 -2.71311 -3.65594 -2.56961 -0.253343 -0.792154 -0.0787161 -3.53335 
124 4.02521 3.63637 16.5968 -3.34077 -3.03239 -2.56467 -0.492117 -0.285678 0.719934 -3.53336 
125 -0.159953 4.32799 17.8704 -3.43245 -4.75003 -3.08633 0.0336776 -0.891769 -0.100301 -3.53371 
126 -0.212386 4.32562 20.4283 -3.45527 -4.745 -3.01078 0.0502869 -0.892535 -0.129901 -3.53371 
127 -0.273866 6.49641 19.1463 -2.86334 -4.40622 -2.67408 0.05079 -1.33511 -0.154899 -3.5337 
128 1.85664 5.10021 19.1506 -2.72535 -3.67291 -2.50576 -0.228929 -0.799488 -0.105752 -3.53334 
129 -0.352273 6.49197 21.7041 -2.89868 -4.41585 -2.6075 0.0700238 -1.33749 -0.198518 -3.53364 
130 3.98006 3.68423 19.1538 -3.3385 -3.06415 -2.50021 -0.478628 -0.308029 0.707244 -3.53335 
131 1.92053 2.93514 20.4323 -3.3134 -3.65675 -2.75261 -0.348827 -0.352897 0.184396 -3.52976 
132 1.88449 2.95771 22.9921 -3.31115 -3.66766 -2.65008 -0.327752 -0.366719 0.166621 -3.52972 
133 1.79442 5.12128 21.7092 -2.74279 -3.6879 -2.42524 -0.202459 -0.808659 -0.136992 -3.53331 
134 3.9344 3.73133 21.7122 -3.33893 -3.09703 -2.4193 -0.461217 -0.333541 0.691298 -3.53333 
135 -0.264544 4.32262 22.9878 -3.48271 -4.73347 -2.91453 0.0653488 -0.892839 -0.163408 -3.53371 
136 -0.316397 4.31899 25.5494 -3.51227 -4.71083 -2.79272 0.0784602 -0.892476 -0.200703 -3.53372 
137 -0.430321 6.48652 24.2636 -2.94029 -4.42115 -2.52125 0.0878808 -1.33926 -0.24719 -3.53358 
138 1.73213 5.14136 24.2695 -2.7645 -3.69833 -2.3244 -0.17403 -0.81998 -0.172872 -3.53328 
139 -0.507958 6.48011 26.8252 -2.98556 -4.41703 -2.40979 0.104071 -1.3399 -0.300297 -3.53353 
140 3.88824 3.77763 24.2724 -3.34074 -3.129 -2.31858 -0.439694 -0.362668 0.671338 -3.5333 
141 1.84834 2.97972 25.554 -3.30695 -3.67062 -2.5225 -0.303969 -0.382625 0.145578 -3.52968 
142 1.81213 3.00117 28.1185 -3.2954 -3.65955 -2.36636 -0.278014 -0.399947 0.121846 -3.52962 
143 1.6698 5.16048 26.832 -2.78784 -3.7001 -2.19953 -0.14411 -0.833484 -0.213003 -3.53324 
144 3.84165 3.82312 26.8347 -3.34101 -3.15631 -2.19456 -0.414351 -0.395267 0.647011 -3.53325 
145 -0.367919 4.3148 28.1134 -3.53846 -4.67013 -2.64055 0.0891435 -0.891238 -0.240416 -3.53376 
146 -0.419089 4.31018 30.6803 -3.55115 -4.60179 -2.45487 0.0968965 -0.888886 -0.279245 -3.53385 
147 -0.585145 6.4729 29.3892 -3.02861 -4.39546 -2.26721 0.11816 -1.33887 -0.355449 -3.5335 
148 1.6075 5.17873 29.397 -2.80717 -3.68693 -2.0475 -0.113857 -0.848488 -0.255376 -3.53319 
149 -0.661843 6.46512 31.9563 -3.05856 -4.34458 -2.08891 0.129426 -1.33576 -0.407753 -3.53353 
150 3.79475 3.86782 29.3996 -3.33418 -3.17251 -2.04405 -0.386333 -0.429888 0.619005 -3.5332 
151 1.77595 3.02215 30.6858 -3.26739 -3.62551 -2.17996 -0.251274 -0.416694 0.0976163 -3.52958 
152 1.73997 3.0428 33.2564 -3.21 -3.55728 -1.96532 -0.226144 -0.429286 0.0770905 -3.52957 
153 1.54536 5.19632 31.9651 -2.8123 -3.64972 -1.86679 -0.0854284 -0.862868 -0.295472 -3.53314 
154 3.74774 3.91186 31.9675 -3.31064 -3.16745 -1.86512 -0.357934 -0.462922 0.589932 -3.53314 
155 -0.469873 4.3053 33.2504 -3.53493 -4.49452 -2.23691 0.101457 -0.884971 -0.312019 -3.53402 
156 -0.520202 4.30037 35.824 -3.47254 -4.33948 -1.99525 0.103272 -0.878575 -0.334203 -3.53429 
157 -0.738004 6.45715 34.5268 -3.0582 -4.24905 -1.87524 0.136937 -1.33004 -0.450216 -3.53367 
158 1.48356 5.21357 34.5365 -2.78749 -3.57639 -1.65909 -0.0618548 -0.872427 -0.326342 -3.53312 
159 -0.813528 6.44935 37.1009 -3.00684 -4.09438 -1.63614 0.140208 -1.3204 -0.477252 -3.53393 
160 3.70094 3.95546 34.5386 -3.25568 -3.12707 -1.65883 -0.332397 -0.488531 0.564739 -3.53311 
161 1.7044 3.0633 35.8303 -3.10974 -3.44478 -1.72945 -0.205386 -0.433853 0.0648321 -3.52963 
162 1.6694 3.08374 38.4072 -2.96155 -3.28618 -1.48286 -0.190259 -0.430003 0.0605512 -3.5298 
163 1.42238 5.23085 37.1112 -2.71433 -3.45427 -1.43115 -0.0459399 -0.871965 -0.342059 -3.53318 
164 3.65475 3.99887 37.1131 -3.15176 -3.0371 -1.43168 -0.312636 -0.501341 0.548637 -3.53317 
165 -0.569955 4.29544 38.4007 -3.35575 -4.13899 -1.74478 0.103788 -0.868499 -0.347349 -3.53464 
166 -0.619001 4.29032 40.98 -3.19275 -3.90882 -1.49744 0.104923 -0.854194 -0.360512 -3.53498 
167 -0.888258 6.44178 39.6781 -2.89353 -3.88016 -1.3911 0.140202 -1.30517 -0.492031 -3.5343 
168 1.36206 5.24834 39.6888 -2.58287 -3.27865 -1.19455 -0.0382772 -0.860298 -0.345829 -3.53335 
169 -0.962057 6.43417 42.2577 -2.72715 -3.62609 -1.15727 0.139187 -1.28443 -0.507395 -3.53466 
170 3.60943 4.04224 39.6906 -2.98919 -2.89249 -1.19589 -0.299242 -0.502568 0.540395 -3.53335 
171 1.63504 3.10403 40.9866 -2.77429 -3.09017 -1.23299 -0.179285 -0.422943 0.0563763 -3.53003 
172 1.60127 3.12403 43.568 -2.55861 -2.86441 -0.977305 -0.170305 -0.419052 0.0441635 -3.53031 
173 1.30271 5.2659 42.2688 -2.40004 -3.05846 -0.959203 -0.0363826 -0.843977 -0.351936 -3.53361 
174 3.56497 4.08547 42.2704 -2.77593 -2.70158 -0.963103 -0.290319 -0.501915 0.529449 -3.53359 
175 -0.667272 4.28482 43.5612 -2.99551 -3.6588 -1.25214 0.10746 -0.836463 -0.382268 -3.53528 
176 -0.714852 4.27888 46.1438 -2.77664 -3.38564 -0.98833 0.11023 -0.81667 -0.418308 -3.53554 
177 -1.03496 6.42629 44.8386 -2.51493 -3.33848 -0.940664 0.137978 -1.26065 -0.528756 -3.535 
178 1.2442 5.28335 44.8503 -2.17368 -2.7982 -0.726439 -0.0391199 -0.831439 -0.371694 -3.53392 
179 -1.10728 6.41848 47.4199 -2.26388 -3.00496 -0.75163 0.137083 -1.23781 -0.546604 -3.53534 
180 3.52119 4.12851 44.8517 -2.51843 -2.47175 -0.739017 -0.283794 -0.508027 0.507553 -3.53389 
181 1.56796 3.14371 46.1512 -2.32075 -2.61046 -0.698348 -0.163854 -0.425264 0.0161503 -3.53058 
182 1.53515 3.16353 48.7362 -2.06121 -2.34778 -0.327422 -0.176026 -0.441299 -0.0212353 -3.53022 
183 1.18617 5.30076 47.4327 -1.91267 -2.49583 -0.492967 -0.0565776 -0.834498 -0.416668 -3.53417 
184 3.47789 4.17141 47.4336 -2.21416 -2.21268 -0.530513 -0.281108 -0.530875 0.463342 -3.5341 
185 -0.762001 4.27356 48.7281 -2.57122 -3.05508 -0.638293 0.101576 -0.792016 -0.430731 -3.53526 
186 -0.811621 4.26877 51.3169 -1.98889 -2.34915 0.320895 0.0837693 -0.845925 -0.652831 -3.53802 
187 -1.17889 6.41384 50.0002 -2.03512 -2.54099 -0.315068 0.0701299 -1.24876 -0.625446 -3.53578 
188 1.12775 5.31799 50.0156 -1.56127 -2.06902 -0.0060928 -0.104253 -0.925082 -0.588094 -3.53488 
189 -1.25707 6.40546 52.5877 -1.61238 -2.48658 0.64367 0.176254 -1.31698 -0.612354 -3.53281 
190 3.43505 4.21346 50.0156 -1.75303 -1.84691 -0.031885 -0.305209 -0.651429 0.317225 -3.53493 
191 1.50027 3.18358 51.3264 -1.43149 -1.70018 0.661812 -0.17266 -0.552571 -0.132249 -3.53269 
192 1.46587 3.20964 53.9052 0.0265157 0.953765 -0.79653 0.566196 -0.561235 0.138597 -3.37565 
193 1.06597 5.33731 52.6041 -1.24949 -1.89886 0.440853 -0.237168 -0.801099 -0.410491 -3.52778 
194 3.38747 4.26008 52.6041 -1.41019 -1.71437 0.389179 -0.390415 -0.639064 0.587846 -3.52745 
195 -0.866323 4.2769 53.8949 -0.0505379 -0.206524 -1.18009 0.0794951 -1.26171 1.02743 -3.38132 
196 1.3298 4.1174 -56.3442 5.06952 2.90521 1.60228 -1.25496 -0.273858 0.110316 -2.79034 
197 -1.33605 6.40133 55.1665 4.17919 2.79795 1.28968 0.319785 -1.52336 0.198387 -3.26107 
198 1.00488 5.36129 55.1754 5.64313 6.6322 2.70828 0.370333 -0.636335 -0.0319869 -3.15047 
199 1.98371 6.26223 -55.1334 6.94024 9.1155 2.92988 0.134095 -0.847965 -0.525865 -3.02309 
200 3.34328 4.30996 55.1754 5.5308 7.35872 2.86962 0.118528 -0.278266 0.56301 -3.15116 
201 2.87095 2.09325 -56.362 4.04257 6.00654 1.88151 -3.16461 0.252875 0.342002 -2.79939 
202 2.84551 2.1252 -53.8874 0.165523 0.763616 -3.02644 -0.981903 -0.732743 -0.162295 -3.51266 
203 3.53831 4.21674 -55.1525 6.03173 6.274 1.759 0.302419 -1.21933 -0.0444505 -3.14331 
204 5.07312 2.13635 -55.1525 6.04999 7.03897 2.00282 0.446002 -0.528061 0.0806651 -3.14511 
205 1.29262 4.16451 -53.8815 0.861155 -0.347445 -3.67562 -0.408519 -0.573921 0.83897 -3.51412 
206 1.24176 4.17585 -51.3147 -1.28973 -1.91418 -0.396516 -0.214912 -0.885456 0.21985 -3.53912 
207 1.90264 6.26187 -52.5941 -0.918777 -1.4567 -0.572459 -0.184192 -1.16816 0.820025 -3.52795 
208 3.4607 4.22944 -52.6036 -0.750519 -0.92653 0.093843 -0.677598 -0.496472 0.191068 -3.53021 
209 1.82403 6.27282 -50.0101 -1.65149 -2.35857 -0.301985 -0.180951 -1.24843 0.434011 -3.53682 
210 5.01221 2.17771 -52.6036 -1.34304 -0.349595 0.0530403 -0.502728 0.0189056 0.991322 -3.52954 
211 2.80522 2.14769 -51.32 -1.10568 -0.949854 -0.138135 -0.279276 -0.338416 0.263499 -3.5342 
212 2.77386 2.17421 -48.7412 -2.03101 -1.86707 -0.619826 -0.296676 -0.14631 0.354742 -3.53083 
213 3.40036 4.25787 -50.02 -1.45911 -1.67724 -0.188796 -0.415947 -0.67335 0.297845 -3.53491 
214 4.971 2.23184 -50.02 -1.87498 -1.29048 -0.156556 -0.299758 0.0537742 0.840347 -3.53495 
215 1.19154 4.18025 -48.7361 -2.24874 -2.79778 -0.860204 -0.188054 -0.784655 0.280527 -3.5364 
216 1.14474 4.18582 -46.1556 -2.73595 -3.22182 -1.05862 -0.168181 -0.78979 0.398682 -3.53606 
217 1.75209 6.27859 -47.4315 -2.17524 -2.85535 -0.751059 -0.220899 -1.20407 0.547225 -3.53591 
218 3.34806 4.28705 -47.4422 -1.95121 -2.21921 -0.641335 -0.30255 -0.58503 0.352686 -3.53419 
219 1.68033 6.29007 -44.8512 -2.56389 -3.21112 -0.935502 -0.20846 -1.21429 0.604606 -3.53536 
220 4.93754 2.28377 -47.4413 -2.37521 -1.79713 -0.606898 -0.210647 0.157392 0.869045 -3.53422 
221 2.74648 2.20086 -46.1608 -2.45484 -2.28031 -0.818526 -0.230314 -0.107423 0.402449 -3.53075 
222 2.71994 2.22897 -43.5797 -2.78298 -2.59316 -1.03037 -0.211886 -0.107901 0.420121 -3.53036 
223 3.29672 4.31883 -44.8622 -2.31635 -2.57656 -0.791475 -0.26181 -0.585292 0.384348 -3.53392 
224 4.90663 2.33629 -44.861 -2.74091 -2.14643 -0.783236 -0.173842 0.182064 0.898161 -3.5339 
225 1.09752 4.19387 -43.5746 -3.08695 -3.53657 -1.28498 -0.15239 -0.80496 0.425178 -3.53552 
226 1.04948 4.20272 -40.9943 -3.35478 -3.80694 -1.52224 -0.147301 -0.822935 0.434288 -3.53506 
227 1.60806 6.30324 -42.2709 -2.8576 -3.51292 -1.16002 -0.207312 -1.23693 0.621156 -3.53485 
228 3.24556 4.35215 -42.2819 -2.60208 -2.86649 -0.992261 -0.244148 -0.595551 0.400098 -3.53359 
229 1.53477 6.31716 -39.6919 -3.07626 -3.7756 -1.4009 -0.213928 -1.26073 0.626713 -3.53438 
230 4.87657 2.38983 -42.2805 -3.03756 -2.42149 -0.989636 -0.161973 0.185169 0.921933 -3.53356 
231 2.69319 2.25794 -40.9993 -3.04524 -2.84827 -1.25869 -0.207358 -0.112021 0.434172 -3.53004 
232 2.666 2.28765 -38.4204 -3.26149 -3.05879 -1.49726 -0.210922 -0.114854 0.446881 -3.52978 
233 3.19406 4.38661 -39.7026 -2.82618 -3.10112 -1.216 -0.238191 -0.60593 0.410145 -3.53331 
234 4.84653 2.44447 -39.7011 -3.28033 -2.63351 -1.21343 -0.162008 0.184714 0.943621 -3.53328 
235 1.00052 4.21197 -38.4157 -3.56013 -4.04683 -1.76875 -0.150449 -0.839814 0.438433 -3.53463 
236 0.95069 4.22159 -35.8394 -3.70526 -4.25288 -2.01963 -0.159653 -0.854404 0.436173 -3.53424 
237 1.46036 6.33171 -37.1151 -3.22346 -3.99508 -1.64967 -0.225591 -1.28145 0.623901 -3.53396 
238 3.14208 4.42213 -37.1253 -2.99173 -3.28024 -1.44858 -0.241764 -0.616734 0.41283 -3.53311 
239 1.38493 6.34692 -34.5413 -3.29933 -4.16029 -1.89277 -0.238632 -1.29839 0.607361 -3.53364 
240 4.81636 2.50021 -37.1237 -3.47035 -2.78559 -1.44471 -0.172433 0.18108 0.958372 -3.53309 
241 2.63843 2.31805 -35.8438 -3.43282 -3.22405 -1.73938 -0.22233 -0.119358 0.454203 -3.52959 
242 2.61053 2.34908 -33.2701 -3.55529 -3.34119 -1.97559 -0.241777 -0.129637 0.451796 -3.52949 
243 3.08961 4.45861 -34.5508 -3.09705 -3.40209 -1.67701 -0.254684 -0.631851 0.402319 -3.53302 
244 4.78607 2.55693 -34.549 -3.60379 -2.87932 -1.67199 -0.193632 0.16829 0.960611 -3.53299 
245 0.900125 4.23157 -33.2662 -3.78903 -4.41609 -2.26368 -0.172109 -0.866891 0.423101 -3.53393 
246 0.848928 4.24183 -30.6963 -3.81769 -4.5337 -2.48741 -0.185052 -0.877455 0.397801 -3.53372 
247 1.30861 6.36263 -31.9711 -3.31275 -4.26924 -2.11393 -0.250064 -1.31183 0.574415 -3.53346 
248 3.03659 4.49575 -31.9796 -3.1465 -3.4737 -1.88916 -0.275535 -0.652331 0.377052 -3.53301 
249 1.23153 6.37849 -29.4043 -3.28116 -4.33172 -2.30194 -0.258321 -1.32148 0.528326 -3.53339 
250 4.75554 2.61433 -31.9776 -3.6835 -2.92366 -1.88363 -0.224222 0.143336 0.949785 -3.53298 
251 2.58227 2.38054 -30.6995 -3.63015 -3.4141 -2.19521 -0.267833 -0.146615 0.439118 -3.52947 
252 2.55354 2.41217 -28.1321 -3.66522 -3.45339 -2.39003 -0.297604 -0.167796 0.419346 -3.5295 
253 2.9829 4.53312 -29.4116 -3.15196 -3.5093 -2.07689 -0.301205 -0.675435 0.341337 -3.53306 
254 4.72455 2.67208 -29.4094 -3.71977 -2.93377 -2.07134 -0.260798 0.108778 0.930053 -3.53302 
255 0.797175 4.25214 -28.1297 -3.80494 -4.61173 -2.68099 -0.196359 -0.885648 0.363113 -3.53361 
256 0.744931 4.26224 -25.5662 -3.76603 -4.66024 -2.84066 -0.204551 -0.890943 0.323577 -3.53357 
257 1.15377 6.39407 -26.8408 -3.22304 -4.36178 -2.45336 -0.262622 -1.32703 0.475122 -3.53341 
258 2.92842 4.57029 -26.8467 -3.12746 -3.52307 -2.23673 -0.327879 -0.697673 0.301202 -3.53312 
259 1.07547 6.40899 -24.2799 -3.15358 -4.37208 -2.57063 -0.262473 -1.329 0.420374 -3.53347 
260 4.69281 2.72985 -26.8443 -3.72482 -2.92438 -2.23129 -0.299419 0.0695975 0.906295 -3.53308 
261 2.52422 2.44374 -25.5677 -3.67092 -3.47116 -2.55595 -0.327908 -0.189808 0.396503 -3.52955 
262 2.49426 2.47505 -23.006 -3.65698 -3.47739 -2.69247 -0.356127 -0.210081 0.373674 -3.5296 
263 2.87311 4.60696 -24.2845 -3.08548 -3.52563 -2.36856 -0.352229 -0.716663 0.261361 -3.53317 
264 4.66016 2.78739 -24.2818 -3.70939 -2.90657 -2.36318 -0.336893 0.0303302 0.882138 -3.53313 
265 0.692274 4.27189 -23.0052 -3.71393 -4.68911 -2.96759 -0.208666 -0.893397 0.283236 -3.53357 
266 0.639298 4.28093 -20.4464 -3.65815 -4.70604 -3.06574 -0.208277 -0.893673 0.244824 -3.5336 
267 0.996732 6.423 -21.7212 -3.08338 -4.37188 -2.65904 -0.257744 -1.32856 0.367871 -3.53355 
268 2.81701 4.6429 -21.7246 -3.03559 -3.52381 -2.47431 -0.372113 -0.731496 0.224543 -3.53322 
269 0.917682 6.43594 -19.1642 -3.0187 -4.36713 -2.72453 -0.248743 -1.32694 0.319588 -3.53364 
270 4.62651 2.84456 -21.7217 -3.68184 -2.88749 -2.46899 -0.371178 -0.00605542 0.859752 -3.53317 
271 2.46366 2.50597 -20.4464 -3.6313 -3.47888 -2.80152 -0.380555 -0.227281 0.352682 -3.52965 
272 2.43246 2.53645 -17.8886 -3.59972 -3.47958 -2.8863 -0.400407 -0.241123 0.334342 -3.52968 
273 2.76018 4.678 -19.1665 -2.98438 -3.52142 -2.55703 -0.386635 -0.742361 0.191883 -3.53326 
274 4.59184 2.90126 -19.1634 -3.64818 -2.87109 -2.55188 -0.401268 -0.0381703 0.840179 -3.53321 
275 0.586092 4.28926 -17.8893 -3.60473 -4.71623 -3.14006 -0.203496 -0.892643 0.20978 -3.53362 
276 0.532735 4.29681 -15.3334 -3.55692 -4.72281 -3.19532 -0.194849 -0.891052 0.178555 -3.53365 
277 0.838405 6.44772 -16.6085 -2.96245 -4.36117 -2.77241 -0.236115 -1.32503 0.27615 -3.53371 
278 2.70269 4.71221 -16.6099 -2.93585 -3.52029 -2.62019 -0.395817 -0.749992 0.163493 -3.53328 
279 0.758967 6.45833 -14.0537 -2.91544 -4.35569 -2.80696 -0.220645 -1.32334 0.23735 -3.53377 
280 4.5562 2.95743 -16.6067 -3.61243 -2.85914 -2.61535 -0.42691 -0.0657834 0.8237 -3.53324 
281 2.40072 2.56643 -15.3322 -3.56624 -3.48145 -2.95045 -0.41562 -0.251969 0.318795 -3.52972 
282 2.36851 2.5959 -12.7769 -3.53334 -3.48522 -2.9975 -0.426566 -0.260473 0.305787 -3.52974 
283 2.64463 4.74553 -14.0544 -2.89203 -3.52113 -2.66718 -0.400194 -0.755248 0.138937 -3.53331 
284 4.51964 3.01306 -14.0511 -3.57713 -2.85212 -2.66273 -0.448313 -0.0893442 0.810138 -3.53327 
285 0.479285 4.30357 -12.7786 -3.51604 -4.7275 -3.23553 -0.183066 -0.889402 0.15096 -3.53367 
286 0.425788 4.30954 -10.2244 -3.4822 -4.73117 -3.26384 -0.1689 -0.887967 0.126467 -3.53369 
287 0.679416 6.46777 -11.4997 -2.87725 -4.35143 -2.83136 -0.203087 -1.32208 0.202552 -3.53381 
288 2.58607 4.77794 -11.4997 -2.85365 -3.52405 -2.701 -0.400486 -0.758897 0.117536 -3.53332 
289 0.59979 6.47607 -8.94619 -2.84699 -4.3486 -2.84788 -0.184066 -1.3213 0.170955 -3.53385 
290 4.48223 3.06813 -11.4963 -3.54366 -2.84983 -2.69696 -0.465912 -0.109606 0.799074 -3.53329 
291 2.33587 2.62488 -10.2224 -3.50236 -3.49103 -3.03058 -0.433813 -0.267337 0.294869 -3.52977 
292 2.30285 2.65337 -7.66842 -3.47387 -3.49871 -3.05227 -0.437945 -0.273183 0.285531 -3.52978 
293 2.52705 4.80948 -8.94575 -2.82067 -3.52892 -2.72412 -0.397401 -0.761548 0.098553 -3.53334 
294 4.44403 3.12264 -8.94229 -3.51268 -2.8518 -2.72045 -0.480198 -0.127387 0.789995 -3.53331 
295 0.372274 4.31476 -7.67074 -3.45491 -4.73427 -3.2826 -0.153004 -0.886871 0.104411 -3.5337 
296 0.318764 4.31922 -5.11739 -3.43344 -4.737 -3.29348 -0.135885 -0.886149 0.0841268 -3.53371 
297 0.520115 6.48324 -6.39303 -2.82361 -4.34722 -2.85808 -0.164045 -1.32095 0.141749 -3.53387 
298 2.46763 4.84016 -6.39218 -2.79269 -3.53556 -2.73848 -0.391537 -0.76365 0.0812878 -3.53335 
299 0.440417 6.48932 -3.84008 -2.80613 -4.34722 -2.86299 -0.143336 -1.32099 0.114186 -3.53389 
300 4.40508 3.17661 -6.38868 -3.48439 -2.85749 -2.73509 -0.491625 -0.143438 0.782386 -3.53332 
301 2.26949 2.68137 -5.11486 -3.44799 -3.50806 -3.06456 -0.439467 -0.278514 0.277282 -3.5298 
302 2.2358 2.70889 -2.56152 -3.42462 -3.51886 -3.06891 -0.438769 -0.283702 0.269695 -3.52981 
303 2.40782 4.86999 -3.83889 -2.76916 -3.54379 -2.74548 -0.383347 -0.765524 0.0651223 -3.53336 
304 4.36542 3.23003 -3.83537 -3.45873 -2.86643 -2.7423 -0.500553 -0.158393 0.775782 -3.53333 
305 0.265275 4.32296 -2.56422 -3.41703 -4.73947 -3.29757 -0.117902 -0.885793 0.0650084 -3.53372 
306 0.360716 6.49432 -1.28722 -2.79377 -4.34853 -2.86324 -0.122137 -1.32135 0.0876106 -3.5339 
307 2.34767 4.89898 -1.28573 -2.7496 -3.55347 -2.74609 -0.373147 -0.767394 0.0495298 -3.53337 
308 4.32508 3.28289 -1.2822 -3.43557 -2.87827 -2.74302 -0.507237 -0.172764 0.769786 -3.53334 
309 2.43188 7.091 -0.0090498 -2.22056 -3.35752 -2.4144 -0.332393 -1.1782 -0.164631 -3.53293 
310 0.429988 8.66904 -0.0103658 -2.25704 -4.02845 -2.49667 -0.121153 -1.71518 0.0969534 -3.53364 
311 0.323992 8.67353 2.54219 -2.25309 -4.03235 -2.49162 -0.0976454 -1.71652 0.0635472 -3.53364 