ITEM: TIMESTEP
203
ITEM: NUMBER OF ATOMS
37664
ITEM: BOX BOUNDS ff ff ff
-100 100
-100 100
-156.15 156.15
ITEM: ATOMS id x y z v_peratom_sxx v_peratom_syy v_peratom_szz v_peratom_sxy v_peratom_sxz v_peratom_syz c_atomPE 
1 -0.00803816 -0.000754232 -0.0154314 -5.19373 -5.17223 -9.53062 -0.0361296 0.224781 -0.0853229 -3.51533 
2 -0.00948 -0.000574388 2.53819 -5.17813 -5.16595 -9.51228 -0.0360609 0.224369 -0.0833116 -3.51541 
3 -0.0108312 -0.000406374 5.09206 -5.15883 -5.15572 -9.48471 -0.0354172 0.221348 -0.0804553 -3.51553 
4 -0.0120885 -0.000233575 7.64632 -5.13555 -5.14128 -9.44741 -0.0342973 0.216182 -0.0767542 -3.5157 
5 -0.013241 -3.80284e-05 10.2011 -5.10776 -5.12207 -9.39917 -0.0328215 0.20949 -0.0721388 -3.51592 
6 -0.0142696 0.000198922 12.7566 -5.07454 -5.09717 -9.33801 -0.0311364 0.201977 -0.0665201 -3.51619 
7 -0.0151486 0.000494452 15.3129 -5.03452 -5.06513 -9.26098 -0.0294081 0.194327 -0.0598668 -3.51654 
8 -0.0158493 0.000860378 17.8703 -4.98557 -5.02378 -9.16403 -0.0277982 0.187071 -0.0523032 -3.51698 
9 -0.0163456 0.00129811 20.4292 -4.92458 -4.96998 -9.04191 -0.0264255 0.180473 -0.0442014 -3.51752 
10 -0.0166178 0.00179401 22.9898 -4.84722 -4.89935 -8.88844 -0.025329 0.174494 -0.0362136 -3.5182 
11 -0.0166548 0.00231761 25.5525 -4.74784 -4.80616 -8.6973 -0.0244542 0.168901 -0.0291909 -3.51904 
12 -0.0164503 0.00282449 28.1179 -4.61992 -4.6837 -8.46391 -0.0236824 0.163481 -0.0239746 -3.52005 
13 -0.0159979 0.00326381 30.6862 -4.45764 -4.52595 -8.18855 -0.0228895 0.15825 -0.0211403 -3.52122 
14 -0.0152849 0.00358724 33.2577 -4.25967 -4.3313 -7.87996 -0.0219918 0.153517 -0.0208354 -3.52249 
15 -0.0142878 0.00375455 35.8323 -4.03408 -4.10764 -7.55549 -0.0209524 0.149832 -0.0228232 -3.52374 
16 -0.0129695 0.00373277 38.4098 -3.79693 -3.87085 -7.23312 -0.0197481 0.147832 -0.0267044 -3.52481 
17 -0.0112742 0.00348928 40.9896 -3.55961 -3.6321 -6.91872 -0.0183154 0.14811 -0.0321846 -3.52568 
18 -0.0091084 0.00298232 43.5715 -3.32296 -3.39159 -6.59917 -0.0164916 0.151561 -0.0392018 -3.52638 
19 -0.00630803 0.00215087 46.1559 -3.06256 -3.12267 -6.23869 -0.013807 0.159381 -0.0477381 -3.52712 
20 -0.00266627 0.000902651 48.743 -2.69413 -2.72825 -5.80595 -0.00708573 0.168442 -0.057346 -3.528 
21 5.95933e-07 -4.11185e-08 51.3317 -1.92172 -1.91909 -4.90229 0.00041461 -0.00889463 0.00303787 -3.53202 
22 4.01304e-07 -1.42881e-06 53.9138 -0.85314 -0.853197 -8.9178 -9.26375e-06 -0.00010446 -7.00539e-05 -3.48167 
23 8.71386e-07 -1.98378e-06 56.3885 1.68517 1.6852 1.87528 -7.97358e-05 9.18332e-05 9.86123e-06 -2.55581 
24 -1.23087e-07 -1.12453e-06 -53.8876 -2.60459 -2.60469 -6.54894 -2.93176e-05 3.55805e-05 -7.48528e-05 -3.40184 
25 1.02659e-07 -1.55837e-06 -51.3239 -2.08146 -2.0862 -5.63214 -0.000614338 -0.0124424 0.00511592 -3.5288 
26 0.00336213 -0.00136909 -48.7478 -2.85618 -2.80722 -6.33328 0.00295088 0.210685 -0.0859601 -3.52572 
27 0.00744322 -0.0031509 -46.1679 -3.2034 -3.12778 -6.54703 0.0062874 0.180934 -0.0808949 -3.52615 
28 0.00973893 -0.00449157 -43.5872 -3.47823 -3.39696 -6.80197 0.00827158 0.167575 -0.0712044 -3.52573 
29 0.0109098 -0.00546501 -41.0074 -3.72318 -3.64027 -7.07667 0.00986778 0.164461 -0.0607925 -3.52517 
30 0.0113765 -0.00613268 -38.4292 -3.96186 -3.87809 -7.36881 0.0110008 0.166001 -0.0507963 -3.52438 
31 0.0113957 -0.00652388 -35.8529 -4.1976 -4.11242 -7.67695 0.011557 0.16812 -0.0422425 -3.52337 
32 0.0111087 -0.00665401 -33.2792 -4.42256 -4.33497 -7.99199 0.0113804 0.168521 -0.0359424 -3.52219 
33 0.0105758 -0.00653603 -30.7085 -4.62429 -4.53348 -8.29772 0.010221 0.166482 -0.0325433 -3.52094 
34 0.00980317 -0.00619092 -28.1408 -4.79364 -4.69955 -8.57734 0.00776785 0.162776 -0.0325769 -3.51974 
35 0.00877443 -0.00565799 -25.576 -4.928 -4.8317 -8.8195 0.00383933 0.159289 -0.0362342 -3.51867 
36 0.00748224 -0.00499761 -23.014 -5.02953 -4.93317 -9.0197 -0.00141404 0.158146 -0.0430389 -3.51777 
37 0.00594941 -0.00428156 -20.4542 -5.10283 -5.00919 -9.17885 -0.00749682 0.160722 -0.0518304 -3.51704 
38 0.00422985 -0.00357648 -17.8964 -5.15328 -5.06508 -9.30099 -0.0137604 0.167171 -0.0611473 -3.51647 
39 0.00239476 -0.00293074 -15.3399 -5.18602 -5.10548 -9.39154 -0.0196283 0.176627 -0.0697074 -3.51604 
40 0.000515706 -0.00237033 -12.7846 -5.20543 -5.13407 -9.45604 -0.0247175 0.187693 -0.0766849 -3.51573 
41 -0.00134758 -0.00190209 -10.2301 -5.21497 -5.15357 -9.49947 -0.0288468 0.198892 -0.0817365 -3.51551 
42 -0.00315281 -0.00152008 -7.67608 -5.21713 -5.16597 -9.52592 -0.0319843 0.208959 -0.0848799 -3.51538 
43 -0.00487517 -0.00121163 -5.12242 -5.21367 -5.17266 -9.53855 -0.0341837 0.216961 -0.0863361 -3.51531 
44 -0.00650408 -0.000961525 -2.56892 -5.20566 -5.17456 -9.53963 -0.0355339 0.22232 -0.0863948 -3.51529 
45 0.0866806 2.15934 1.26079 -4.07931 -5.13334 -3.82655 -0.0868271 -0.373674 0.000477714 -3.52912 
46 0.0591639 2.16041 3.81442 -4.06715 -5.13247 -3.81045 -0.0713328 -0.373535 -0.00892652 -3.52914 
47 0.0317361 2.16114 6.36837 -4.0568 -5.12949 -3.78665 -0.0554404 -0.373983 -0.018356 -3.52916 
48 0.00440906 2.16154 8.92276 -4.04809 -5.1242 -3.75444 -0.0393537 -0.374902 -0.0279852 -3.52919 
49 -0.0227978 2.16164 11.4778 -4.04098 -5.1162 -3.71251 -0.0233306 -0.376152 -0.038006 -3.52923 
50 -0.0498571 2.16145 14.0335 -4.03556 -5.10474 -3.65891 -0.00769975 -0.377573 -0.0486851 -3.52927 
51 -0.0767348 2.16098 16.5902 -4.03186 -5.08863 -3.59093 0.00714253 -0.378992 -0.0604158 -3.52933 
52 -0.103394 2.16024 19.1482 -4.02967 -5.06592 -3.50501 0.020756 -0.380242 -0.0737341 -3.52941 
53 -0.129798 2.15923 21.7078 -4.02804 -5.03365 -3.39682 0.0326953 -0.381171 -0.0892421 -3.5295 
54 -0.155916 2.15796 24.2692 -4.02456 -4.98739 -3.26152 0.0425511 -0.381655 -0.107367 -3.52962 
55 -0.181726 2.15642 26.833 -4.01428 -4.92095 -3.09463 0.0499926 -0.381572 -0.127895 -3.52977 
56 -0.207209 2.15464 29.3996 -3.98856 -4.82644 -2.89369 0.054849 -0.380754 -0.149341 -3.52997 
57 -0.232342 2.15264 31.9692 -3.93491 -4.6957 -2.66082 0.0573054 -0.378921 -0.16862 -3.53024 
58 -0.25708 2.1505 34.5422 -3.84034 -4.52438 -2.40491 0.0581754 -0.375637 -0.182201 -3.53059 
59 -0.281349 2.14822 37.1181 -3.70014 -4.31781 -2.1399 0.0588808 -0.370296 -0.189733 -3.531 
60 -0.305047 2.14571 39.6968 -3.52338 -4.09028 -1.87673 0.0607879 -0.362307 -0.196213 -3.5314 
61 -0.32807 2.14284 42.2776 -3.32292 -3.85182 -1.61499 0.0644596 -0.351491 -0.207817 -3.53175 
62 -0.350323 2.13951 44.8605 -3.10707 -3.5982 -1.34186 0.0690506 -0.337323 -0.231256 -3.53202 
63 -0.371699 2.13591 47.4455 -2.85072 -3.2794 -1.04884 0.0705742 -0.317382 -0.258642 -3.53229 
64 -0.392512 2.13371 50.032 -2.39007 -2.80004 -0.451224 0.0349029 -0.37279 -0.224168 -3.53329 
65 -0.418483 2.1304 52.6263 -1.76614 -2.00424 -0.560445 0.0452849 -0.308672 -0.730584 -3.52455 
66 -0.44812 2.14653 55.1778 6.9775 7.73873 2.43034 0.0332361 -0.597235 1.76978 -3.02528 
67 0.649859 2.05055 -55.162 1.39002 0.843133 -0.676366 -0.188189 -0.0991664 1.208 -3.26035 
68 0.633027 2.08274 -52.6122 -1.11399 -2.21969 -0.458408 -0.374779 -0.488893 -0.161758 -3.53571 
69 0.607028 2.08678 -50.0319 -2.02513 -2.62628 -0.958375 -0.130658 -0.387139 0.0698788 -3.53406 
70 0.586624 2.08721 -47.4551 -2.77579 -3.1347 -1.36099 -0.128274 -0.31723 0.142795 -3.53284 
71 0.565404 2.08982 -44.8747 -3.22121 -3.49932 -1.51283 -0.101244 -0.330273 0.18944 -3.53214 
72 0.542887 2.0934 -42.2942 -3.52776 -3.77726 -1.73457 -0.0869225 -0.343026 0.20596 -3.53167 
73 0.519321 2.09742 -39.715 -3.77548 -4.0254 -1.97638 -0.0810968 -0.354321 0.217832 -3.53123 
74 0.494903 2.10175 -37.1376 -3.9812 -4.25524 -2.23023 -0.0824764 -0.364318 0.22734 -3.53077 
75 0.469793 2.10639 -34.5626 -4.14232 -4.46193 -2.48978 -0.0901238 -0.373512 0.231414 -3.53033 
76 0.444107 2.11134 -31.9906 -4.25372 -4.63597 -2.74364 -0.102451 -0.382213 0.226707 -3.52995 
77 0.417915 2.11653 -29.4217 -4.31689 -4.77241 -2.97836 -0.117287 -0.389948 0.212609 -3.52966 
78 0.391258 2.12183 -26.8561 -4.34039 -4.87374 -3.18368 -0.132335 -0.395659 0.191356 -3.52945 
79 0.364183 2.12707 -24.2932 -4.33546 -4.94683 -3.35494 -0.145492 -0.398541 0.166197 -3.52932 
80 0.336765 2.13211 -21.7329 -4.31274 -4.99927 -3.49241 -0.155119 -0.398581 0.140118 -3.52924 
81 0.309095 2.13681 -19.1745 -4.28089 -5.03735 -3.59943 -0.160297 -0.396425 0.115304 -3.52919 
82 0.281265 2.14112 -16.6177 -4.24604 -5.06552 -3.68058 -0.160879 -0.392945 0.0930119 -3.52915 
83 0.253359 2.14498 -14.0621 -4.21204 -5.08665 -3.74043 -0.157297 -0.388918 0.0736924 -3.52913 
84 0.225439 2.1484 -11.5074 -4.18098 -5.10256 -3.78302 -0.150278 -0.384916 0.0572274 -3.52912 
85 0.19755 2.15139 -8.95326 -4.1537 -5.11441 -3.81161 -0.140603 -0.381308 0.0431799 -3.52911 
86 0.169719 2.15396 -6.39955 -4.13028 -5.12296 -3.82872 -0.128957 -0.378309 0.0309911 -3.5291 
87 0.141961 2.15613 -3.84607 -4.1104 -5.12875 -3.83617 -0.115875 -0.376024 0.0201105 -3.5291 
88 0.11428 2.15792 -1.29267 -4.09358 -5.13213 -3.83521 -0.101742 -0.374485 0.010064 -3.52911 
89 0.209099 4.32601 -0.0157046 -3.4165 -4.74665 -3.29537 -0.11261 -0.870373 0.0504073 -3.53374 
90 0.277782 6.49817 1.26138 -2.79431 -4.35952 -2.85975 -0.112777 -1.31113 0.0665382 -3.53391 
91 2.19918 2.73555 -0.0118852 -3.4156 -3.52694 -3.0742 -0.446058 -0.272969 0.268467 -3.5298 
92 2.16457 2.76215 2.54157 -3.39491 -3.54159 -3.0629 -0.44096 -0.278552 0.26144 -3.52981 
93 2.28406 4.92667 1.26387 -2.74207 -3.5635 -2.74775 -0.370006 -0.757296 0.0425047 -3.53337 
94 4.28107 3.33445 1.26827 -3.4264 -2.8915 -2.74375 -0.519561 -0.177084 0.765889 -3.53334 
95 0.155357 4.32831 2.53764 -3.4076 -4.74927 -3.2859 -0.0928184 -0.870542 0.0321247 -3.53374 
96 0.101696 4.32991 5.09121 -3.40218 -4.75162 -3.27054 -0.0725963 -0.871092 0.013595 -3.53374 
97 0.197831 6.501 3.81452 -2.79032 -4.36388 -2.85 -0.0900601 -1.31201 0.0401763 -3.5339 
98 2.22297 4.95398 3.81728 -2.72843 -3.57697 -2.73488 -0.355541 -0.759664 0.0268894 -3.53337 
99 0.117969 6.50278 6.36793 -2.79033 -4.36939 -2.83572 -0.0670148 -1.31324 0.013184 -3.53389 
100 4.23913 3.38621 3.82166 -3.4061 -2.90974 -2.73119 -0.521476 -0.191384 0.760357 -3.53335 
101 2.12969 2.78829 5.09524 -3.37605 -3.55727 -3.04512 -0.434021 -0.284725 0.254129 -3.52981 
102 2.09456 2.81395 7.64925 -3.35896 -3.57391 -3.02049 -0.425229 -0.291548 0.246354 -3.52981 
103 2.16162 4.98045 6.37095 -2.71791 -3.59166 -2.71615 -0.339316 -0.762523 0.0105569 -3.53337 
104 4.19659 3.43739 6.37529 -3.38784 -2.93032 -2.71271 -0.521211 -0.206215 0.754536 -3.53335 
105 0.048132 4.33083 7.64513 -3.40015 -4.75371 -3.24891 -0.0520569 -0.871985 -0.00552954 -3.53374 
106 -0.00531126 4.33108 10.1995 -3.40159 -4.75545 -3.22016 -0.0313629 -0.873163 -0.0256132 -3.53374 
107 0.0382247 6.50352 8.92172 -2.79446 -4.37611 -2.81643 -0.0437294 -1.31484 -0.0149109 -3.53388 
108 2.10003 5.00608 8.92502 -2.7106 -3.6075 -2.69102 -0.321311 -0.765967 -0.00684902 -3.53337 
109 -0.0413679 6.50322 11.476 -2.80308 -4.3841 -2.7913 -0.0203532 -1.31681 -0.0446335 -3.53385 
110 4.15346 3.48796 8.9293 -3.37171 -2.95327 -2.68775 -0.51864 -0.221819 0.748193 -3.53336 
111 2.05921 2.83914 10.2037 -3.34368 -3.59138 -2.98815 -0.414532 -0.299075 0.237935 -3.52981 
112 2.02364 2.86385 12.7589 -3.33037 -3.60944 -2.94677 -0.401838 -0.307388 0.228645 -3.5298 
113 2.03822 5.03085 11.4796 -2.70676 -3.62441 -2.65852 -0.301479 -0.770111 -0.0257334 -3.53337 
114 4.10977 3.53793 11.4838 -3.35787 -2.97864 -2.65531 -0.513564 -0.238462 0.741056 -3.53336 
115 -0.0586045 4.33066 12.7546 -3.40682 -4.75664 -3.18302 -0.0107489 -0.874548 -0.047085 -3.53374 
116 -0.111711 4.3296 15.3104 -3.4163 -4.75679 -3.13559 0.00947105 -0.876024 -0.0704797 -3.53373 
117 -0.120769 6.50187 14.0309 -2.81674 -4.39331 -2.75908 0.00289111 -1.31914 -0.0766038 -3.53382 
118 1.97624 5.05474 14.0349 -2.70683 -3.64215 -2.61723 -0.279757 -0.775113 -0.0465954 -3.53336 
119 -0.199932 6.4995 16.5867 -2.83613 -4.40347 -2.71795 0.0257106 -1.32173 -0.111559 -3.53377 
120 4.06552 3.58725 14.039 -3.34658 -3.00646 -2.61397 -0.505705 -0.256485 0.732759 -3.53336 
121 1.98788 2.88807 15.3149 -3.31924 -3.62766 -2.89441 -0.387017 -0.316639 0.218158 -3.52979 
122 1.95196 2.91179 17.8719 -3.31039 -3.64529 -2.82846 -0.369901 -0.327081 0.206008 -3.52977 
123 1.9141 5.07774 16.5911 -2.71132 -3.66023 -2.56516 -0.256073 -0.781197 -0.0700591 -3.53335 
124 4.02075 3.63589 16.5951 -3.33811 -3.03664 -2.56177 -0.494715 -0.276338 0.722798 -3.53336 
125 -0.164587 4.32789 17.8673 -3.43049 -4.755 -3.0753 0.0289115 -0.877434 -0.096449 -3.53373 
126 -0.217185 4.32555 20.4255 -3.44962 -4.7496 -2.99878 0.0471382 -0.878575 -0.125699 -3.53373 
127 -0.278802 6.4961 19.1435 -2.86188 -4.41382 -2.66535 0.0477618 -1.32442 -0.150327 -3.53372 
128 1.85185 5.09981 19.1485 -2.7207 -3.67776 -2.49975 -0.230365 -0.788658 -0.0968613 -3.53334 
129 -0.357321 6.49168 21.7017 -2.8943 -4.42277 -2.59783 0.0686838 -1.32691 -0.193685 -3.53366 
130 3.97548 3.68384 19.1523 -3.33256 -3.06878 -2.49626 -0.480202 -0.298589 0.710496 -3.53335 
131 1.91593 2.93499 20.4303 -3.30354 -3.66097 -2.74568 -0.350301 -0.339059 0.191593 -3.52975 
132 1.8798 2.95765 22.9904 -3.2976 -3.67239 -2.64222 -0.328068 -0.352922 0.174276 -3.52972 
133 1.78953 5.12093 21.7072 -2.73504 -3.69317 -2.41785 -0.202624 -0.797842 -0.127749 -3.53332 
134 3.92973 3.73103 21.711 -3.32961 -3.10191 -2.41448 -0.461806 -0.323864 0.695036 -3.53333 
135 -0.269459 4.32259 22.9854 -3.47312 -4.73771 -2.90182 0.0636915 -0.879208 -0.158785 -3.53373 
136 -0.321365 4.31903 25.5472 -3.49874 -4.71474 -2.77961 0.078096 -0.879082 -0.195698 -3.53375 
137 -0.435425 6.48627 24.2615 -2.93274 -4.42734 -2.5109 0.0881256 -1.32873 -0.24205 -3.5336 
138 1.72719 5.1411 24.2678 -2.75356 -3.70384 -2.31586 -0.172993 -0.809061 -0.163212 -3.53329 
139 -0.513054 6.47993 26.8233 -2.97475 -4.42247 -2.39906 0.105729 -1.32933 -0.294896 -3.53354 
140 3.88356 3.77744 24.2713 -3.32808 -3.13398 -2.3131 -0.439358 -0.352644 0.675605 -3.53331 
141 1.84362 2.97976 25.5525 -3.2899 -3.67569 -2.51405 -0.303252 -0.368772 0.153681 -3.52968 
142 1.80745 3.00132 28.1172 -3.27519 -3.66479 -2.35762 -0.276386 -0.385999 0.130258 -3.52963 
143 1.66489 5.16032 26.8305 -2.77377 -3.70563 -2.19013 -0.141974 -0.822364 -0.20296 -3.53325 
144 3.83702 3.82305 26.8338 -3.32518 -3.16125 -2.18864 -0.413161 -0.384839 0.651754 -3.53326 
145 -0.372868 4.31492 28.1115 -3.52121 -4.6737 -2.62735 0.0898564 -0.87796 -0.235192 -3.53379 
146 -0.423937 4.31038 30.6787 -3.53059 -4.60498 -2.4419 0.0985053 -0.875579 -0.274068 -3.53388 
147 -0.590156 6.47279 29.3877 -3.01463 -4.40008 -2.25643 0.121028 -1.32815 -0.349936 -3.53352 
148 1.60269 5.17867 29.3958 -2.7902 -3.69223 -2.03754 -0.110747 -0.837089 -0.245099 -3.5332 
149 -0.666684 6.4651 31.955 -3.04168 -4.34832 -2.07844 0.133312 -1.32474 -0.402367 -3.53355 
150 3.79024 3.86788 29.3989 -3.31548 -3.17727 -2.03795 -0.384356 -0.41905 0.624068 -3.53321 
151 1.7714 3.02241 30.6848 -3.24453 -3.63071 -2.17125 -0.24884 -0.402659 0.106074 -3.52958 
152 1.73563 3.04315 33.2555 -3.1851 -3.56221 -1.95687 -0.222995 -0.41519 0.0852571 -3.52958 
153 1.54073 5.19636 31.9641 -2.7928 -3.65453 -1.8566 -0.0814664 -0.851126 -0.28521 -3.53315 
154 3.74342 3.91204 31.9669 -3.2895 -3.17183 -1.85908 -0.355233 -0.451705 0.595059 -3.53316 
155 -0.47453 4.30559 33.2492 -3.51166 -4.49724 -2.22444 0.103837 -0.871464 -0.30722 -3.53404 
156 -0.524568 4.30072 35.823 -3.44738 -4.34169 -1.98348 0.106339 -0.864665 -0.330143 -3.53431 
157 -0.742578 6.45721 34.5258 -3.03894 -4.25186 -1.86539 0.141671 -1.31853 -0.445271 -3.53369 
158 1.47921 5.2137 34.5356 -2.76601 -3.58048 -1.64899 -0.057162 -0.860286 -0.316404 -3.53313 
159 -0.817729 6.44947 37.1001 -2.98605 -4.09627 -1.62711 0.145621 -1.30821 -0.473103 -3.53395 
160 3.6969 3.95573 34.5382 -3.23276 -3.13088 -1.65307 -0.329043 -0.476988 0.569623 -3.53313 
161 1.70035 3.06372 35.8296 -3.08363 -3.44921 -1.72141 -0.201617 -0.419708 0.0723674 -3.52964 
162 1.66575 3.08418 38.4066 -2.93523 -3.28984 -1.47523 -0.185997 -0.415763 0.0671897 -3.52981 
163 1.4184 5.23104 37.1105 -2.6917 -3.45745 -1.42135 -0.0406556 -0.859375 -0.332752 -3.5332 
164 3.65108 3.9992 37.1128 -3.12793 -3.0401 -1.42639 -0.308736 -0.489517 0.552982 -3.5332 
165 -0.573919 4.29581 38.3999 -3.3298 -4.14059 -1.73374 0.107443 -0.853934 -0.344375 -3.53466 
166 -0.622432 4.29068 40.9793 -3.16743 -3.90954 -1.48696 0.108982 -0.838662 -0.358943 -3.535 
167 -0.891966 6.44193 39.6775 -2.87242 -3.88109 -1.38287 0.14605 -1.29209 -0.489027 -3.53432 
168 1.35856 5.24856 39.6883 -2.56018 -3.28071 -1.18515 -0.0326082 -0.847199 -0.337374 -3.53338 
169 -0.965138 6.43431 42.2573 -2.70719 -3.62579 -1.14957 0.145047 -1.27026 -0.505843 -3.53468 
170 3.60622 4.04258 39.6904 -2.9656 -2.89445 -1.19114 -0.294974 -0.490458 0.544017 -3.53337 
171 1.6319 3.10445 40.9862 -2.74891 -3.09269 -1.22565 -0.174718 -0.408462 0.0619896 -3.53005 
172 1.59876 3.12438 43.5677 -2.53566 -2.86523 -0.970024 -0.165782 -0.404023 0.0487927 -3.53033 
173 1.29981 5.2661 42.2684 -2.37861 -3.05908 -0.95017 -0.0306758 -0.830268 -0.344401 -3.53363 
174 3.56232 4.08578 42.2702 -2.75395 -2.70219 -0.958934 -0.285986 -0.489385 0.532375 -3.53362 
175 -0.670016 4.28512 43.5607 -2.97256 -3.65808 -1.24182 0.111577 -0.819579 -0.382434 -3.5353 
176 -0.716711 4.27908 46.1435 -2.75817 -3.38236 -0.977487 0.11386 -0.797622 -0.42059 -3.53556 
177 -1.03726 6.4264 44.8384 -2.49775 -3.33634 -0.932928 0.143146 -1.24521 -0.528967 -3.53502 
178 1.24204 5.2835 44.8501 -2.15518 -2.79689 -0.717618 -0.0340091 -0.816944 -0.364964 -3.53395 
179 -1.10863 6.41854 47.4198 -2.25125 -2.99991 -0.742625 0.140657 -1.22063 -0.548975 -3.53537 
180 3.51923 4.12875 44.8516 -2.49998 -2.47068 -0.735408 -0.279967 -0.494755 0.510036 -3.53392 
181 1.56628 3.14394 46.151 -2.30253 -2.60855 -0.690888 -0.160169 -0.409018 0.0202004 -3.5306 
182 1.53455 3.16361 48.7361 -2.04973 -2.34308 -0.320104 -0.172753 -0.421821 -0.0161176 -3.53025 
183 1.18493 5.30084 47.4326 -1.90004 -2.49238 -0.483317 -0.0535508 -0.81856 -0.410004 -3.5342 
184 3.4768 4.17154 47.4336 -2.20303 -2.20961 -0.526945 -0.278997 -0.516165 0.465685 -3.53413 
185 -0.762659 4.27363 48.728 -2.55878 -3.04734 -0.625941 0.103883 -0.765476 -0.43598 -3.5353 
186 -0.811621 4.26877 51.3169 -1.98901 -2.34852 0.324495 0.0837538 -0.847853 -0.652682 -3.53801 
187 -1.17889 6.41384 50.0002 -2.02551 -2.54136 -0.307983 0.0618228 -1.23449 -0.628199 -3.5358 
188 1.12775 5.31799 50.0156 -1.55826 -2.06489 -0.000241442 -0.101638 -0.914952 -0.583951 -3.53491 
189 -1.25707 6.40546 52.5877 -1.61258 -2.48648 0.643699 0.176448 -1.3173 -0.61211 -3.5328 
190 3.43505 4.21346 50.0156 -1.75092 -1.84456 -0.0298668 -0.303531 -0.642643 0.319483 -3.53494 
191 1.50027 3.18358 51.3264 -1.4315 -1.69979 0.663246 -0.17271 -0.554585 -0.131777 -3.53268 
192 1.46587 3.20964 53.9052 0.0264819 0.953722 -0.79664 0.566173 -0.561293 0.138519 -3.37565 
193 1.06597 5.33731 52.6041 -1.24951 -1.89891 0.44076 -0.237195 -0.801047 -0.410473 -3.52778 
194 3.38747 4.26008 52.6041 -1.41015 -1.71454 0.389079 -0.390335 -0.638999 0.587929 -3.52745 
195 -0.866323 4.2769 53.8949 -0.0504523 -0.206593 -1.17995 0.0795196 -1.26173 1.02744 -3.38132 
196 1.3298 4.1174 -56.3442 5.06954 2.90513 1.60224 -1.255 -0.273851 0.110327 -2.79034 
197 -1.33605 6.40133 55.1665 4.17901 2.79806 1.28963 0.319756 -1.52339 0.198495 -3.26107 
198 1.00488 5.36129 55.1754 5.64335 6.63228 2.7084 0.370434 -0.636308 -0.0318522 -3.15047 
199 1.98371 6.26223 -55.1334 6.9403 9.11548 2.93001 0.134075 -0.847979 -0.525914 -3.02309 
200 3.34328 4.30996 55.1754 5.53083 7.35894 2.86972 0.118491 -0.278188 0.56309 -3.15116 
201 2.87095 2.09325 -56.362 4.04258 6.00655 1.88162 -3.16462 0.252924 0.342047 -2.79939 
202 2.84551 2.1252 -53.8874 0.165601 0.763654 -3.02653 -0.98186 -0.732733 -0.162277 -3.51266 
203 3.53831 4.21674 -55.1525 6.03174 6.27402 1.7589 0.302413 -1.2193 -0.0444479 -3.14331 
204 5.07312 2.13635 -55.1525 6.04998 7.03899 2.00272 0.445986 -0.52805 0.0806901 -3.14511 
205 1.29262 4.16451 -53.8815 0.861098 -0.347306 -3.67584 -0.408443 -0.573936 0.838969 -3.51412 
206 1.24176 4.17585 -51.3147 -1.29074 -1.91529 -0.405276 -0.214924 -0.887246 0.219768 -3.53915 
207 1.90264 6.26187 -52.5941 -0.919204 -1.45679 -0.57249 -0.184212 -1.1682 0.82003 -3.52796 
208 3.4607 4.22944 -52.6036 -0.751043 -0.926778 0.0934296 -0.67761 -0.496615 0.19097 -3.53022 
209 1.82403 6.27282 -50.0101 -1.65454 -2.37087 -0.317421 -0.173652 -1.23613 0.434201 -3.53686 
210 5.01221 2.17771 -52.6036 -1.34344 -0.349917 0.0526277 -0.502755 0.0188034 0.991266 -3.52955 
211 2.80522 2.14769 -51.32 -1.10634 -0.950858 -0.148176 -0.27967 -0.340357 0.264245 -3.53423 
212 2.77446 2.17402 -48.7415 -2.05504 -1.87837 -0.650103 -0.299114 -0.118486 0.35929 -3.5308 
213 3.40036 4.25787 -50.02 -1.46962 -1.68631 -0.20889 -0.418787 -0.660338 0.301571 -3.53489 
214 4.971 2.23184 -50.02 -1.88703 -1.29701 -0.174269 -0.301064 0.0655482 0.840941 -3.53493 
215 1.19223 4.18017 -48.7364 -2.27406 -2.81322 -0.889163 -0.191141 -0.76069 0.278781 -3.53639 
216 1.14663 4.18553 -46.1562 -2.77099 -3.23152 -1.09167 -0.170506 -0.773668 0.397354 -3.53606 
217 1.75342 6.27855 -47.4318 -2.20195 -2.86272 -0.781167 -0.224353 -1.19025 0.547554 -3.53593 
218 3.34922 4.28683 -47.4427 -1.97079 -2.22252 -0.674141 -0.303838 -0.564876 0.357869 -3.53421 
219 1.68252 6.28991 -44.8519 -2.59823 -3.21674 -0.964334 -0.212945 -1.20342 0.604917 -3.53538 
220 4.93857 2.28341 -47.4417 -2.39593 -1.79927 -0.634825 -0.210542 0.175885 0.868763 -3.53423 
221 2.74817 2.20036 -46.1615 -2.48852 -2.28269 -0.851291 -0.230485 -0.0876629 0.404827 -3.53075 
222 2.72233 2.22822 -43.5807 -2.82327 -2.59029 -1.06348 -0.211241 -0.0923802 0.421742 -3.53036 
223 3.29872 4.3184 -44.863 -2.34707 -2.57528 -0.822434 -0.263219 -0.570344 0.388429 -3.53393 
224 4.90842 2.33564 -44.8616 -2.77331 -2.14484 -0.809095 -0.172677 0.19614 0.897385 -3.53389 
225 1.10018 4.19337 -43.5756 -3.12747 -3.54349 -1.31756 -0.154152 -0.791955 0.42456 -3.53552 
226 1.05261 4.20206 -40.9958 -3.3993 -3.81138 -1.55345 -0.148833 -0.812482 0.434959 -3.53505 
227 1.61081 6.30295 -42.272 -2.89649 -3.51608 -1.18799 -0.212698 -1.22872 0.622185 -3.53486 
228 3.24812 4.35155 -42.283 -2.63807 -2.86123 -1.02381 -0.245686 -0.5839 0.403643 -3.53359 
229 1.53783 6.31678 -39.6934 -3.11751 -3.77636 -1.42785 -0.220659 -1.25506 0.628823 -3.53438 
230 4.87885 2.38896 -42.2814 -3.07571 -2.41587 -1.01561 -0.160449 0.196046 0.92087 -3.53355 
231 2.69599 2.25699 -41.0006 -3.08903 -2.84156 -1.29135 -0.206213 -0.0989411 0.435966 -3.53003 
232 2.66901 2.28656 -38.4221 -3.30742 -3.04883 -1.52899 -0.209759 -0.103409 0.449252 -3.52977 
233 3.19693 4.38589 -39.704 -2.86517 -3.09228 -1.24801 -0.240193 -0.596848 0.413661 -3.5333 
234 4.84908 2.44343 -39.7023 -3.3215 -2.62434 -1.23939 -0.160566 0.193448 0.942727 -3.53326 
235 1.00388 4.21121 -38.4176 -3.60727 -4.04885 -1.79838 -0.152493 -0.831757 0.440586 -3.53461 
236 0.954074 4.22079 -35.8417 -3.75337 -4.25247 -2.04759 -0.163257 -0.848413 0.439713 -3.53422 
237 1.46349 6.33131 -37.1169 -3.26469 -3.9936 -1.67544 -0.234419 -1.27794 0.627148 -3.53396 
238 3.14504 4.42134 -37.127 -3.03207 -3.26811 -1.48071 -0.244836 -0.609768 0.416583 -3.5331 
239 1.38791 6.34654 -34.5436 -3.33803 -4.15683 -1.91715 -0.250219 -1.29618 0.611544 -3.53364 
240 4.819 2.49907 -37.1251 -3.513 -2.77343 -1.47023 -0.17162 0.188324 0.957917 -3.53306 
241 2.64146 2.31691 -35.8458 -3.47996 -3.21105 -1.77005 -0.221836 -0.109168 0.457241 -3.52957 
242 2.61344 2.34795 -33.2724 -3.60266 -3.32534 -2.00529 -0.242752 -0.120489 0.455355 -3.52947 
243 3.09248 4.45782 -34.5528 -3.13709 -3.38703 -1.70903 -0.25948 -0.626535 0.406353 -3.533 
244 4.78863 2.55575 -34.5507 -3.64674 -2.86469 -1.69681 -0.194037 0.174415 0.960623 -3.53297 
245 0.903344 4.23083 -33.2688 -3.83609 -4.41334 -2.28985 -0.178324 -0.862263 0.42766 -3.53391 
246 0.851826 4.24121 -30.6993 -3.86153 -4.52891 -2.51153 -0.194564 -0.873139 0.402812 -3.53371 
247 1.31126 6.36234 -31.9737 -3.34675 -4.26423 -2.13658 -0.264625 -1.30975 0.579141 -3.53346 
248 3.0392 4.49501 -31.9819 -3.18454 -3.45631 -1.92079 -0.282513 -0.648057 0.381276 -3.53299 
249 1.23372 6.37832 -29.4074 -3.30929 -4.32585 -2.32243 -0.275463 -1.31844 0.533164 -3.5334 
250 4.7579 2.61317 -31.9795 -3.7256 -2.90718 -1.90759 -0.226343 0.148575 0.9501 -3.53296 
251 2.58493 2.37948 -30.7021 -3.67646 -3.39583 -2.22411 -0.270983 -0.138277 0.442907 -3.52945 
252 2.55585 2.41121 -28.135 -3.70911 -3.43352 -2.4182 -0.303287 -0.159901 0.423065 -3.52948 
253 2.98513 4.53246 -29.4142 -3.18651 -3.49054 -2.10777 -0.310421 -0.671462 0.345636 -3.53304 
254 4.72659 2.67096 -29.4116 -3.75995 -2.9162 -2.0944 -0.264898 0.113356 0.930427 -3.53299 
255 0.799631 4.25167 -28.1331 -3.84381 -4.60555 -2.70272 -0.209197 -0.880539 0.367989 -3.53361 
256 0.74687 4.26193 -25.5699 -3.79918 -4.6536 -2.85972 -0.22008 -0.884276 0.327929 -3.53358 
257 1.15545 6.39402 -26.8442 -3.24542 -4.35592 -2.4714 -0.281479 -1.32243 0.479776 -3.53342 
258 2.93019 4.56972 -26.8496 -3.15765 -3.5041 -2.2664 -0.338953 -0.693263 0.305531 -3.5331 
259 1.0766 6.40905 -24.2837 -3.17127 -4.36708 -2.58616 -0.282046 -1.32281 0.424757 -3.53349 
260 4.69447 2.72879 -26.8466 -3.76219 -2.90658 -2.2534 -0.305447 0.0738086 0.906527 -3.53304 
261 2.52609 2.4429 -25.5708 -3.71118 -3.45078 -2.58327 -0.336002 -0.18185 0.399974 -3.52952 
262 2.49565 2.47432 -23.0093 -3.69295 -3.4576 -2.71865 -0.366119 -0.201539 0.376895 -3.52957 
263 2.87438 4.60646 -24.2876 -3.11118 -3.50755 -2.39654 -0.364523 -0.711275 0.265773 -3.53316 
264 4.66137 2.7864 -24.2844 -3.74343 -2.88935 -2.38426 -0.344526 0.0345329 0.882143 -3.5331 
265 0.693663 4.27173 -23.0093 -3.74167 -4.68298 -2.98391 -0.22588 -0.884935 0.286966 -3.53359 
266 0.640133 4.28088 -20.4507 -3.68142 -4.70115 -3.07952 -0.226178 -0.883575 0.248065 -3.53361 
267 0.997323 6.42312 -21.7252 -3.09774 -4.36838 -2.67227 -0.277198 -1.32109 0.372054 -3.53358 
268 2.81775 4.64245 -21.7279 -3.05729 -3.50737 -2.50026 -0.384979 -0.724888 0.229157 -3.53321 
269 0.917753 6.43609 -19.1684 -3.03088 -4.3654 -2.73577 -0.267542 -1.31855 0.323708 -3.53366 
270 4.62724 2.84362 -21.7244 -3.71242 -2.87148 -2.48893 -0.379956 -0.00150718 0.859565 -3.53314 
271 2.46454 2.50534 -20.4499 -3.6629 -3.4605 -2.82622 -0.391784 -0.217765 0.355791 -3.52962 
272 2.43282 2.53588 -17.8922 -3.62734 -3.4631 -2.90921 -0.412274 -0.230434 0.337536 -3.52966 
273 2.7604 4.67759 -19.17 -3.00285 -3.507 -2.58075 -0.399575 -0.734536 0.19683 -3.53324 
274 4.59208 2.90036 -19.1662 -3.67548 -2.85667 -2.57054 -0.410734 -0.0330018 0.839916 -3.53318 
275 0.58639 4.28927 -17.8938 -3.62461 -4.71296 -3.1516 -0.221338 -0.88122 0.212761 -3.53364 
276 0.532519 4.29686 -15.3381 -3.57436 -4.72122 -3.2049 -0.212192 -0.8786 0.181495 -3.53367 
277 0.837978 6.44788 -16.6128 -2.97328 -4.36127 -2.78198 -0.254003 -1.31601 0.28034 -3.53373 
278 2.70241 4.71181 -16.6135 -2.95187 -3.50801 -2.64162 -0.408516 -0.741083 0.168885 -3.53327 
279 0.758066 6.45847 -14.0582 -2.92545 -4.35751 -2.8151 -0.237564 -1.31387 0.241708 -3.53378 
280 4.55596 2.95656 -16.6095 -3.63683 -2.84651 -2.63259 -0.436691 -0.059833 0.823503 -3.53322 
281 2.40058 2.56591 -15.3359 -3.59045 -3.46704 -2.97135 -0.427682 -0.240076 0.322263 -3.52969 
282 2.36789 2.59542 -12.7807 -3.55473 -3.47287 -3.01627 -0.438541 -0.247455 0.309667 -3.52972 
283 2.64387 4.74512 -14.0581 -2.90623 -3.51091 -2.68636 -0.412481 -0.745429 0.144848 -3.5333 
284 4.51894 3.01221 -14.054 -3.59903 -2.84134 -2.67846 -0.458143 -0.0825566 0.810135 -3.53324 
285 0.478584 4.30364 -12.7833 -3.53177 -4.72748 -3.24338 -0.199724 -0.876145 0.154019 -3.53369 
286 0.42463 4.30962 -10.2292 -3.49671 -4.73253 -3.27008 -0.184838 -0.874067 0.129728 -3.53371 
287 0.678066 6.46788 -11.5042 -2.88679 -4.35478 -2.83822 -0.219085 -1.31227 0.207125 -3.53383 
288 2.58485 4.77753 -11.5035 -2.86649 -3.51575 -2.71799 -0.41228 -0.748338 0.123997 -3.53332 
289 0.598013 6.47614 -8.95074 -2.85624 -4.35331 -2.85353 -0.199231 -1.31119 0.175745 -3.53386 
290 4.48108 3.06729 -11.4993 -3.56343 -2.84085 -2.7111 -0.475613 -0.102009 0.799356 -3.53327 
291 2.3348 2.62442 -10.2262 -3.52141 -3.48061 -3.04716 -0.445536 -0.253336 0.299235 -3.52974 
292 2.30135 2.65293 -7.67226 -3.49095 -3.49008 -3.06667 -0.449322 -0.258377 0.290398 -3.52976 
293 2.5254 4.80906 -8.94955 -2.83247 -3.52237 -2.73901 -0.408669 -0.750405 0.105553 -3.53333 
294 4.44246 3.12182 -8.94523 -3.53062 -2.84455 -2.73296 -0.489655 -0.119064 0.790613 -3.53329 
295 0.370687 4.31483 -7.67555 -3.46853 -4.73678 -3.28726 -0.168255 -0.872447 0.107895 -3.53372 
296 0.316775 4.31928 -5.12217 -3.44632 -4.74048 -3.29654 -0.150491 -0.871301 0.0878036 -3.53373 
297 0.517935 6.48328 -6.39756 -2.83265 -4.35311 -2.86252 -0.178454 -1.31059 0.146717 -3.53389 
298 2.46557 4.83972 -6.39598 -2.80361 -3.53059 -2.75133 -0.402258 -0.752066 0.088778 -3.53334 
299 0.437856 6.48932 -3.84456 -2.81499 -4.35411 -2.8662 -0.157031 -1.3104 0.119271 -3.5339 
300 4.40311 3.17581 -6.3916 -3.50069 -2.85189 -2.74595 -0.500756 -0.13451 0.783352 -3.5333 
301 2.26759 2.68094 -5.11866 -3.46333 -3.50108 -3.07679 -0.450434 -0.263096 0.282616 -3.52978 
302 2.23353 2.70848 -2.56525 -3.43831 -3.51341 -3.07899 -0.449262 -0.267873 0.27543 -3.52979 
303 2.40538 4.86954 -3.84264 -2.77929 -3.54026 -2.75633 -0.393498 -0.753632 0.0730274 -3.53335 
304 4.36308 3.22924 -3.83823 -3.4735 -2.86238 -2.7515 -0.509291 -0.149002 0.777077 -3.53332 
305 0.262909 4.32301 -2.56894 -3.42922 -4.74373 -3.29902 -0.131876 -0.870618 0.0688195 -3.53373 
306 0.357798 6.49428 -1.29162 -2.80241 -4.35626 -2.86517 -0.135115 -1.31059 0.0927358 -3.53391 
307 2.34487 4.89852 -1.2894 -2.75892 -3.55125 -2.75496 -0.382687 -0.755323 0.0577548 -3.53336 
308 4.32239 3.28212 -1.28499 -3.44881 -2.87567 -2.75058 -0.515513 -0.163061 0.77137 -3.53333 
309 2.42858 7.09044 -0.0125432 -2.22648 -3.35825 -2.42232 -0.340929 -1.16946 -0.15626 -3.53293 
310 0.426537 8.66884 -0.0144285 -2.2626 -4.03918 -2.49899 -0.132776 -1.70766 0.102222 -3.53365 
311 0.320224 8.67327 2.53825 -2.25858 -4.04368 -2.49284 -0.108428 -1.7089 0.0686909 -3.53364 