ITEM: TIMESTEP
203
ITEM: NUMBER OF ATOMS
37664
ITEM: BOX BOUNDS ff ff ff
-100 100
-100 100
-156.15 156.15
ITEM: ATOMS id x y z v_peratom_sxx v_peratom_syy v_peratom_szz v_peratom_sxy v_peratom_sxz v_peratom_syz c_atomPE 
1 -0.00331898 -0.00115914 -0.00331018 -5.18184 -5.16777 -9.54214 -0.00392617 0.0286266 -0.0496283 -3.51525 
2 -0.00377548 -0.000986418 2.54988 -5.17598 -5.16474 -9.53464 -0.00493103 0.0309099 -0.0486318 -3.51528 
3 -0.0041799 -0.000804245 5.10321 -5.16632 -5.15797 -9.51725 -0.00590394 0.0331362 -0.0469713 -3.51536 
4 -0.00452872 -0.000608167 7.65684 -5.15252 -5.14708 -9.48921 -0.00683681 0.0351907 -0.0446927 -3.51549 
5 -0.00482059 -0.00039504 10.2109 -5.13386 -5.13134 -9.44906 -0.00771351 0.0369841 -0.0418757 -3.51567 
6 -0.00505545 -0.000163602 12.7656 -5.10917 -5.10956 -9.39454 -0.00851103 0.0384596 -0.038631 -3.51593 
7 -0.00523368 8.50561e-05 15.3212 -5.07677 -5.08005 -9.32252 -0.00920252 0.0395938 -0.0350963 -3.51626 
8 -0.00535535 0.000347144 17.8778 -5.03431 -5.04044 -9.2289 -0.00976091 0.0403933 -0.0314332 -3.51669 
9 -0.00541962 0.000615976 20.4359 -4.9786 -4.98748 -9.1086 -0.0101626 0.0408903 -0.0278233 -3.51723 
10 -0.00542441 0.000882028 22.9958 -4.90541 -4.91688 -8.95573 -0.0103912 0.0411388 -0.0244603 -3.51792 
11 -0.00536615 0.00113336 25.5578 -4.80933 -4.82313 -8.7643 -0.010441 0.0412122 -0.0215336 -3.51877 
12 -0.0052398 0.00135643 28.1224 -4.68402 -4.69981 -8.52995 -0.0103196 0.0412 -0.0192063 -3.5198 
13 -0.00503895 0.00153732 30.6901 -4.52372 -4.54108 -8.25306 -0.0100479 0.0411991 -0.017588 -3.52098 
14 -0.00475617 0.00166285 33.261 -4.32696 -4.34541 -7.94236 -0.00965392 0.0413015 -0.0167173 -3.52227 
15 -0.0043832 0.00172098 35.8351 -4.10171 -4.12072 -7.61535 -0.00916392 0.0415838 -0.0165738 -3.52354 
16 -0.00391119 0.00169999 38.412 -3.86407 -3.88309 -7.29037 -0.00859241 0.0420869 -0.0171156 -3.52464 
17 -0.00333033 0.00158621 40.9913 -3.62561 -3.64409 -6.97381 -0.00793249 0.0428037 -0.0183331 -3.52552 
18 -0.00262566 0.0013598 43.5728 -3.38729 -3.40454 -6.65289 -0.00713366 0.043792 -0.0203122 -3.52624 
19 -0.00176945 0.000989043 46.1568 -3.12393 -3.13883 -6.29107 -0.00601501 0.0451886 -0.0232024 -3.52698 
20 -0.000729693 0.000424806 48.7435 -2.74372 -2.75208 -5.85367 -0.00333145 0.0460073 -0.0269393 -3.52785 
21 5.95933e-07 -4.11185e-08 51.3317 -1.92264 -1.92198 -4.91708 0.000248491 -0.00235873 0.00144393 -3.53204 
22 4.01304e-07 -1.42881e-06 53.9138 -0.852295 -0.852314 -8.91787 -4.02606e-06 -5.32603e-05 -7.43757e-05 -3.48168 
23 8.71386e-07 -1.98378e-06 56.3885 1.68546 1.68548 1.8764 -3.47415e-05 4.40165e-05 2.62263e-06 -2.55581 
24 -1.23087e-07 -1.12453e-06 -53.8876 -2.6062 -2.60626 -6.54931 -1.88644e-05 7.90761e-06 -4.52035e-05 -3.40183 
25 1.02659e-07 -1.55837e-06 -51.3239 -2.07999 -2.08093 -5.59046 -0.000557276 -0.00202045 0.00264096 -3.52874 
26 0.000582304 -0.00071917 -48.7466 -2.72578 -2.71556 -6.18569 0.00623706 0.0361661 -0.0450835 -3.52626 
27 0.00131984 -0.00166732 -46.1653 -3.05698 -3.04096 -6.38976 0.0113139 0.0331102 -0.0405561 -3.52664 
28 0.00176674 -0.00234131 -43.5833 -3.33694 -3.31895 -6.6493 0.0126072 0.0335568 -0.0354868 -3.52621 
29 0.00203728 -0.00280091 -41.0022 -3.59004 -3.57072 -6.93451 0.0128638 0.0346398 -0.0314247 -3.52562 
30 0.00218272 -0.00309591 -38.4228 -3.83754 -3.81709 -7.23924 0.0126045 0.0354329 -0.0285404 -3.5248 
31 0.00223146 -0.00326002 -35.8455 -4.08121 -4.05963 -7.5602 0.0120315 0.0355262 -0.0268508 -3.52375 
32 0.00219963 -0.00331778 -33.2709 -4.31218 -4.28941 -7.88685 0.0112349 0.0347729 -0.0263328 -3.52253 
33 0.0020946 -0.00328929 -30.6994 -4.51776 -4.49373 -8.20201 0.0102623 0.0332035 -0.0269069 -3.52125 
34 0.00191754 -0.00319258 -28.131 -4.68947 -4.66424 -8.48869 0.00914642 0.031009 -0.0284374 -3.52004 
35 0.00166684 -0.0030449 -25.5658 -4.8261 -4.79984 -8.73627 0.00792093 0.0285007 -0.0307323 -3.51896 
36 0.00134195 -0.00286279 -23.0032 -4.93127 -4.9043 -8.94148 0.00662864 0.0260319 -0.0335454 -3.51805 
37 0.000946112 -0.00266119 -20.443 -5.0104 -4.98313 -9.1064 0.00531696 0.0239066 -0.0366062 -3.5173 
38 0.000487137 -0.00245226 -17.8846 -5.06888 -5.04178 -9.23579 0.00402551 0.0223332 -0.0396629 -3.51671 
39 -2.32803e-05 -0.00224474 -15.3278 -5.11132 -5.08488 -9.33522 0.0027761 0.0214245 -0.042515 -3.51625 
40 -0.000570832 -0.00204397 -12.7722 -5.14138 -5.11607 -9.40996 0.00157214 0.0212202 -0.0450208 -3.5159 
41 -0.00113978 -0.00185246 -10.2175 -5.16184 -5.13813 -9.46456 0.000407347 0.0217047 -0.0470841 -3.51564 
42 -0.00171395 -0.00167048 -7.66341 -5.1748 -5.15308 -9.50267 -0.000724149 0.0228121 -0.0486322 -3.51545 
43 -0.00227765 -0.00149652 -5.10981 -5.18179 -5.1624 -9.52709 -0.00182374 0.0244306 -0.0496036 -3.51533 
44 -0.00281664 -0.0013275 -2.55649 -5.1839 -5.16709 -9.53982 -0.00289086 0.0264188 -0.0499474 -3.51526 
45 0.0925641 2.15904 1.27226 -4.05113 -5.1308 -3.83582 -0.0563086 -0.429272 -0.00169371 -3.52911 
46 0.0659508 2.16018 3.82546 -4.04564 -5.1303 -3.82587 -0.0436147 -0.428542 -0.0107201 -3.52912 
47 0.0393926 2.16098 6.37889 -4.04289 -5.12805 -3.80793 -0.0307859 -0.427876 -0.0197645 -3.52914 
48 0.0129006 2.16146 8.93268 -4.0429 -5.12369 -3.78114 -0.017963 -0.427291 -0.0291581 -3.52916 
49 -0.0135153 2.16161 11.487 -4.04565 -5.11665 -3.74404 -0.00528885 -0.426786 -0.0392699 -3.52919 
50 -0.0398458 2.16144 14.0421 -4.051 -5.10601 -3.69456 0.00707295 -0.426339 -0.0505103 -3.52923 
51 -0.0660811 2.16093 16.5981 -4.05862 -5.09038 -3.62989 0.0189165 -0.425916 -0.0633241 -3.52928 
52 -0.092211 2.1601 19.1553 -4.0678 -5.06776 -3.54644 0.0299697 -0.425461 -0.0781572 -3.52934 
53 -0.118225 2.15894 21.7141 -4.07707 -5.03516 -3.43992 0.0398757 -0.424906 -0.0953654 -3.52942 
54 -0.144114 2.15745 24.2748 -4.08359 -4.98833 -3.30556 0.0481912 -0.424161 -0.115014 -3.52953 
55 -0.169868 2.15566 26.8379 -4.08216 -4.92129 -3.13893 0.0544318 -0.423115 -0.136506 -3.52967 
56 -0.195478 2.15362 29.4038 -4.064 -4.82634 -2.93758 0.0582144 -0.421623 -0.158062 -3.52987 
57 -0.220928 2.1514 31.9728 -4.01646 -4.69543 -2.70368 0.0595413 -0.419474 -0.176445 -3.53014 
58 -0.246191 2.1491 34.5452 -3.92626 -4.52418 -2.44623 0.059138 -0.416366 -0.188128 -3.53049 
59 -0.271219 2.14674 37.1206 -3.78822 -4.318 -2.17944 0.0584487 -0.4119 -0.192858 -3.5309 
60 -0.295952 2.14426 39.6988 -3.61084 -4.09147 -1.91466 0.0589292 -0.405763 -0.195759 -3.5313 
61 -0.320355 2.14154 42.2792 -3.40613 -3.85519 -1.65203 0.0612207 -0.398166 -0.20307 -3.53166 
62 -0.344452 2.1385 44.8617 -3.18074 -3.60573 -1.37976 0.0645681 -0.389625 -0.22157 -3.53195 
63 -0.368381 2.13532 47.4462 -2.90522 -3.29294 -1.09346 0.0657561 -0.381825 -0.243351 -3.53224 
64 -0.392512 2.13371 50.032 -2.42513 -2.80044 -0.484339 0.0574265 -0.406746 -0.209572 -3.53326 
65 -0.418483 2.1304 52.6263 -1.76594 -2.0052 -0.561196 0.0453944 -0.308893 -0.730192 -3.52456 
66 -0.44812 2.14653 55.1778 6.97686 7.73852 2.43073 0.033081 -0.597297 1.77009 -3.02528 
67 0.649859 2.05055 -55.162 1.38962 0.842611 -0.677754 -0.188234 -0.0991895 1.20773 -3.26036 
68 0.633027 2.08274 -52.6122 -1.1124 -2.2189 -0.45784 -0.374552 -0.489234 -0.161557 -3.53567 
69 0.607028 2.08678 -50.0319 -2.00767 -2.56976 -0.891222 -0.160558 -0.418906 0.0765001 -3.534 
70 0.582531 2.08796 -47.4537 -2.66362 -3.08439 -1.24042 -0.12456 -0.381359 0.14913 -3.53289 
71 0.558593 2.09125 -44.872 -3.08884 -3.45317 -1.39887 -0.101453 -0.379433 0.194467 -3.53223 
72 0.534538 2.0954 -42.2904 -3.38902 -3.7376 -1.62655 -0.0910058 -0.385099 0.207832 -3.5318 
73 0.510167 2.09986 -39.7101 -3.63307 -3.99246 -1.87534 -0.0884604 -0.392095 0.215151 -3.53137 
74 0.485435 2.10447 -37.1317 -3.83534 -4.22919 -2.13668 -0.0919193 -0.398675 0.219574 -3.53093 
75 0.460372 2.10922 -34.5558 -3.99299 -4.44275 -2.40368 -0.099765 -0.404489 0.218823 -3.53051 
76 0.435038 2.11411 -31.983 -4.1019 -4.62342 -2.66451 -0.109768 -0.409773 0.210283 -3.53013 
77 0.409479 2.11906 -29.4134 -4.16543 -4.76608 -2.90569 -0.119473 -0.414701 0.194015 -3.52984 
78 0.383722 2.12398 -26.847 -4.19381 -4.87289 -3.11726 -0.127014 -0.419183 0.17265 -3.52961 
79 0.357783 2.12875 -24.2835 -4.19873 -4.95024 -3.29497 -0.13146 -0.423044 0.14929 -3.52945 
80 0.331675 2.13329 -21.7225 -4.1898 -5.00529 -3.43933 -0.132642 -0.426175 0.126244 -3.52933 
81 0.305414 2.13753 -19.1636 -4.1737 -5.04426 -3.5536 -0.130828 -0.428559 0.104815 -3.52925 
82 0.27902 2.14145 -16.6063 -4.1546 -5.07185 -3.64214 -0.126467 -0.430234 0.0855348 -3.52919 
83 0.252516 2.14502 -14.0503 -4.13491 -5.09145 -3.70934 -0.120029 -0.431263 0.0684626 -3.52915 
84 0.225927 2.14824 -11.4953 -4.116 -5.10542 -3.7591 -0.111927 -0.431721 0.053413 -3.52912 
85 0.199279 2.1511 -8.94109 -4.09861 -5.11533 -3.79466 -0.102495 -0.431707 0.0401041 -3.5291 
86 0.172597 2.15361 -6.38738 -4.08319 -5.12226 -3.81853 -0.0920027 -0.431341 0.0282322 -3.52909 
87 0.145903 2.15576 -3.83402 -4.07002 -5.12691 -3.8326 -0.0806762 -0.430745 0.0174991 -3.52909 
88 0.11922 2.15757 -1.28086 -4.05929 -5.12968 -3.83813 -0.0687174 -0.430027 0.00761751 -3.5291 
89 0.215343 4.32579 -0.00476158 -3.38772 -4.73657 -3.2983 -0.0794416 -0.909695 0.0399613 -3.5337 
90 0.285263 6.49824 1.27142 -2.77238 -4.34101 -2.86049 -0.0824471 -1.33826 0.0545948 -3.53388 
91 2.20524 2.73644 -0.00334639 -3.38833 -3.53755 -3.05633 -0.422315 -0.31343 0.25171 -3.52984 
92 2.17148 2.76306 2.54978 -3.37347 -3.54884 -3.05157 -0.41979 -0.318556 0.244566 -3.52984 
93 2.29132 4.92775 1.27215 -2.72213 -3.56743 -2.73266 -0.349204 -0.786946 0.0214162 -3.53337 
94 4.28809 3.3362 1.27445 -3.40046 -2.89503 -2.73096 -0.501825 -0.200547 0.76152 -3.53336 
95 0.162451 4.32821 2.54822 -3.38182 -4.73845 -3.29313 -0.0627784 -0.909608 0.0219635 -3.5337 
96 0.109602 4.32994 5.10135 -3.38037 -4.74062 -3.28207 -0.0459384 -0.909611 0.00382933 -3.53371 
97 0.206087 6.50124 3.8242 -2.77002 -4.34477 -2.85411 -0.0628537 -1.33893 0.0286843 -3.53387 
98 2.23102 4.95513 3.82522 -2.71173 -3.57832 -2.72543 -0.337242 -0.78878 0.00589044 -3.53338 
99 0.126961 6.50319 6.37718 -2.77266 -4.35027 -2.84331 -0.0432233 -1.33985 0.00219939 -3.53386 
100 4.24692 3.38793 3.82753 -3.38566 -2.91051 -2.72318 -0.505874 -0.214683 0.755726 -3.53337 
101 2.13741 2.7892 5.10305 -3.36098 -3.56151 -3.04013 -0.415642 -0.323808 0.23738 -3.52984 
102 2.10305 2.81487 7.6566 -3.351 -3.57547 -3.02149 -0.409839 -0.329431 0.229843 -3.52984 
103 2.1704 4.98166 6.3785 -2.70524 -3.59068 -2.71219 -0.323699 -0.790906 -0.0101879 -3.53337 
104 4.2051 3.43906 6.38081 -3.37346 -2.92872 -2.70927 -0.507897 -0.229131 0.74971 -3.53337 
105 0.0568168 4.33098 7.65477 -3.38351 -4.74298 -3.26464 -0.0290624 -0.909718 -0.0149153 -3.53371 
106 0.00411495 4.33134 10.2086 -3.39148 -4.74532 -3.23991 -0.0122791 -0.909924 -0.0347825 -3.5337 
107 0.0479119 6.50409 8.93047 -2.78055 -4.35749 -2.82752 -0.023675 -1.34106 -0.0254568 -3.53384 
108 2.1095 5.00733 8.93213 -2.70287 -3.60445 -2.69235 -0.30856 -0.793539 -0.0273155 -3.53337 
109 -0.0310319 6.50393 11.4842 -2.79412 -4.36636 -2.80582 -0.00432497 -1.34257 -0.0549356 -3.53382 
110 4.16264 3.48957 8.93443 -3.36403 -2.9497 -2.68859 -0.50774 -0.244288 0.743141 -3.53337 
111 2.06841 2.84005 10.2106 -3.34364 -3.59056 -2.99471 -0.402271 -0.335675 0.221612 -3.52983 
112 2.03349 2.86472 12.7652 -3.33897 -3.60653 -2.95828 -0.392748 -0.34281 0.212298 -3.52982 
113 2.04834 5.03212 11.4862 -2.70494 -3.61949 -2.66486 -0.291748 -0.79691 -0.0460502 -3.53337 
114 4.11955 3.53945 11.4885 -3.35754 -2.97348 -2.66009 -0.505151 -0.260577 0.735636 -3.53336 
115 -0.048484 4.33102 12.763 -3.40457 -4.74727 -3.20645 0.00428227 -0.910211 -0.0563348 -3.5337 
116 -0.100959 4.33 15.3182 -3.4231 -4.7482 -3.16228 0.0204732 -0.910534 -0.080186 -3.53369 
117 -0.109841 6.5027 14.0386 -2.81392 -4.37669 -2.77685 0.0147023 -1.34439 -0.086956 -3.53378 
118 1.98692 5.056 14.041 -2.71181 -3.63554 -2.62823 -0.273129 -0.80128 -0.0670244 -3.53336 
119 -0.188483 6.5004 16.5937 -2.84052 -4.38806 -2.73867 0.0332635 -1.34646 -0.122296 -3.53374 
120 4.07583 3.58865 14.0433 -3.35415 -3.00006 -2.62225 -0.49978 -0.278471 0.726733 -3.53336 
121 1.99831 2.88887 15.3206 -3.337 -3.62294 -2.91015 -0.381019 -0.351135 0.201448 -3.5298 
122 1.96287 2.91246 17.8771 -3.33754 -3.639 -2.84764 -0.366792 -0.360981 0.188556 -3.52978 
123 1.92527 5.07893 16.5967 -2.72386 -3.65214 -2.5804 -0.252542 -0.806949 -0.090941 -3.53334 
124 4.03149 3.63715 16.599 -3.35394 -3.0293 -2.57309 -0.491204 -0.298496 0.715874 -3.53335 
125 -0.153289 4.32829 17.8744 -3.44726 -4.74705 -3.10473 0.0361032 -0.910816 -0.106974 -3.53368 
126 -0.20545 4.32588 20.4319 -3.47685 -4.74206 -3.03036 0.0509146 -0.910941 -0.137278 -3.53368 
127 -0.266924 6.49701 19.1499 -2.87438 -4.3996 -2.68863 0.0511896 -1.34867 -0.161738 -3.53368 
128 1.8634 5.1009 19.1535 -2.74129 -3.66842 -2.51872 -0.229825 -0.814248 -0.11853 -3.53332 
129 -0.345125 6.49253 21.7073 -2.91552 -4.40967 -2.62318 0.0682808 -1.35079 -0.205934 -3.53362 
130 3.98654 3.6849 19.1557 -3.3568 -3.06075 -2.51009 -0.478962 -0.32123 0.7024 -3.53333 
131 1.92718 2.93549 20.4349 -3.34 -3.65334 -2.76746 -0.349785 -0.372684 0.173094 -3.52975 
132 1.89126 2.95792 22.9945 -3.34297 -3.66367 -2.66576 -0.329818 -0.386506 0.154626 -3.52971 
133 1.80135 5.12187 21.7117 -2.76392 -3.68287 -2.43997 -0.204884 -0.823518 -0.150429 -3.5333 
134 3.94098 3.73185 21.7139 -3.36218 -3.09338 -2.43029 -0.462657 -0.347234 0.685596 -3.53331 
135 -0.25742 4.32278 22.9911 -3.51087 -4.73042 -2.93493 0.0645525 -0.91075 -0.17143 -3.53368 
136 -0.309179 4.31903 25.5522 -3.54666 -4.70765 -2.81358 0.076536 -0.910067 -0.209149 -3.53369 
137 -0.423049 6.487 24.2664 -2.96299 -4.41537 -2.53774 0.0842933 -1.35243 -0.255103 -3.53355 
138 1.73912 5.14182 24.2718 -2.79067 -3.69299 -2.3405 -0.177812 -0.835036 -0.186934 -3.53326 
139 -0.500658 6.48048 26.8276 -3.01402 -4.41177 -2.42674 0.0988956 -1.35314 -0.308508 -3.5335 
140 3.89485 3.77798 24.2739 -3.36867 -3.12516 -2.3303 -0.442117 -0.376882 0.66483 -3.53327 
141 1.85514 2.97975 25.5561 -3.34352 -3.66618 -2.53854 -0.306975 -0.402424 0.133053 -3.52966 
142 1.81885 3.00103 28.1202 -3.33623 -3.65489 -2.38231 -0.281864 -0.419727 0.109109 -3.52961 
143 1.67678 5.16079 26.8339 -2.81877 -3.69474 -2.21655 -0.149099 -0.848815 -0.227518 -3.53322 
144 3.8482 3.82329 26.836 -3.37328 -3.1524 -2.20663 -0.417667 -0.409974 0.639881 -3.53323 
145 -0.360711 4.3147 28.1158 -3.57861 -4.66697 -2.6615 0.0862573 -0.908721 -0.248942 -3.53372 
146 -0.412002 4.30993 30.6823 -3.59645 -4.59892 -2.47552 0.0930833 -0.90653 -0.287435 -3.53381 
147 -0.577923 6.47313 29.3912 -3.06254 -4.39096 -2.28419 0.111577 -1.35244 -0.363673 -3.53347 
148 1.61436 5.17888 29.3987 -2.84251 -3.68189 -2.06499 -0.119942 -0.864187 -0.270063 -3.53316 
149 -0.654821 6.46522 31.9579 -3.0974 -4.34114 -2.10549 0.121549 -1.35 -0.415644 -3.5335 
150 3.80114 3.86781 29.4006 -3.37038 -3.16875 -2.05611 -0.390489 -0.445039 0.611554 -3.53317 
151 1.78251 3.02184 30.6873 -3.31188 -3.62092 -2.19547 -0.255931 -0.436439 0.0850772 -3.52956 
152 1.74625 3.04235 33.2576 -3.25734 -3.55309 -1.98012 -0.231599 -0.449035 0.065179 -3.52954 
153 1.55198 5.19632 31.9665 -2.85151 -3.64536 -1.88431 -0.0925301 -0.879069 -0.309993 -3.53311 
154 3.75386 3.91169 31.9682 -3.35018 -3.16413 -1.87682 -0.362901 -0.478487 0.582532 -3.5331 
155 -0.46303 4.30494 33.2522 -3.58449 -4.49218 -2.2569 0.0966702 -0.903123 -0.319432 -3.53397 
156 -0.513742 4.29993 35.8254 -3.52503 -4.3379 -2.01435 0.0974689 -0.897661 -0.340401 -3.53424 
157 -0.73132 6.45714 34.5281 -3.10093 -4.2469 -1.89103 0.127865 -1.34533 -0.457382 -3.53363 
158 1.48983 5.21344 34.5376 -2.82969 -3.57305 -1.67627 -0.069904 -0.889302 -0.340346 -3.53308 
159 -0.807341 6.44925 37.1019 -3.05181 -4.09363 -1.6509 0.130106 -1.33714 -0.483262 -3.5339 
160 3.70669 3.95515 34.5392 -3.29767 -3.12452 -1.66987 -0.338145 -0.504512 0.557783 -3.53307 
161 1.71027 3.06276 35.8312 -3.15878 -3.44132 -1.74342 -0.211613 -0.453715 0.0539208 -3.52961 
162 1.67474 3.08317 38.4079 -3.01073 -3.28379 -1.49612 -0.197178 -0.450177 0.0508831 -3.52977 
163 1.42815 5.23064 37.1121 -2.75816 -3.45221 -1.44777 -0.0548271 -0.889693 -0.355236 -3.53314 
164 3.66 3.99849 37.1135 -3.19486 -3.03561 -1.44189 -0.319091 -0.517772 0.542457 -3.53313 
165 -0.564043 4.29496 38.4019 -3.40921 -4.13841 -1.76298 0.0970313 -0.88901 -0.351911 -3.53459 
166 -0.613834 4.28986 40.9809 -3.24457 -3.90968 -1.51504 0.0974769 -0.876687 -0.363034 -3.53493 
167 -0.882751 6.44165 39.679 -2.93838 -3.88091 -1.40488 0.129421 -1.32372 -0.496447 -3.53426 
168 1.36718 5.2481 39.6896 -2.62641 -3.27814 -1.21058 -0.0477649 -0.879055 -0.357992 -3.53331 
169 -0.957439 6.43403 42.2583 -2.76896 -3.62874 -1.17049 0.128417 -1.3051 -0.509802 -3.53462 
170 3.61406 4.04183 39.6909 -3.0316 -2.89237 -1.20518 -0.306219 -0.519566 0.535148 -3.5333 
171 1.63968 3.10349 40.9871 -2.82161 -3.08934 -1.24587 -0.186698 -0.443769 0.0480024 -3.53 
172 1.605 3.12359 43.5684 -2.60146 -2.86595 -0.990286 -0.17774 -0.441112 0.0368842 -3.53027 
173 1.30698 5.26568 42.2694 -2.4409 -3.05994 -0.974779 -0.0459846 -0.863978 -0.363106 -3.53356 
174 3.56881 4.08511 42.2706 -2.81538 -2.70322 -0.971508 -0.297425 -0.519784 0.524982 -3.53354 
175 -0.663093 4.28443 43.5619 -3.04232 -3.66195 -1.2698 0.0998829 -0.861588 -0.382298 -3.53524 
176 -0.711985 4.27863 46.1443 -2.81426 -3.39282 -1.00708 0.103439 -0.845741 -0.41529 -3.5355 
177 -1.03147 6.42619 44.8391 -2.55045 -3.34386 -0.954145 0.128385 -1.28365 -0.528707 -3.53497 
178 1.24742 5.2832 44.8508 -2.20881 -2.8023 -0.741946 -0.0478539 -0.853005 -0.382156 -3.53387 
179 -1.10522 6.41845 47.4202 -2.28949 -3.01448 -0.767224 0.130223 -1.26379 -0.543541 -3.5353 
180 3.52405 4.12823 44.8518 -2.55163 -2.47553 -0.746694 -0.290178 -0.527367 0.503366 -3.53384 
181 1.5705 3.14343 46.1515 -2.35499 -2.61587 -0.711969 -0.170075 -0.449757 0.00915958 -3.53054 
182 1.53606 3.16343 48.7363 -2.08249 -2.35743 -0.34117 -0.181605 -0.471471 -0.0306958 -3.53016 
183 1.18803 5.30068 47.433 -1.93673 -2.50268 -0.510453 -0.0619785 -0.858754 -0.427693 -3.53413 
184 3.47951 4.17126 47.4337 -2.23474 -2.21885 -0.538682 -0.284865 -0.55286 0.458864 -3.53405 
185 -0.760973 4.27348 48.7283 -2.59546 -3.06916 -0.65932 0.0972193 -0.833632 -0.423416 -3.53518 
186 -0.811621 4.26877 51.3169 -1.98852 -2.35045 0.315036 0.083842 -0.842879 -0.652933 -3.53805 
187 -1.17889 6.41384 50.0002 -2.05167 -2.54091 -0.327037 0.0828496 -1.27076 -0.621595 -3.53574 
188 1.12775 5.31799 50.0156 -1.56746 -2.07657 -0.0166965 -0.108948 -0.940804 -0.595303 -3.53485 
189 -1.25707 6.40546 52.5877 -1.6123 -2.48681 0.643422 0.175918 -1.31644 -0.612842 -3.53281 
190 3.43505 4.21346 50.0156 -1.75767 -1.85151 -0.0365576 -0.308386 -0.664733 0.31295 -3.5349 
191 1.50027 3.18358 51.3264 -1.43155 -1.70096 0.659113 -0.172614 -0.549479 -0.132858 -3.53272 
192 1.46587 3.20964 53.9052 0.0266336 0.953909 -0.796122 0.566267 -0.56107 0.138838 -3.37565 
193 1.06597 5.33731 52.6041 -1.24932 -1.89869 0.441246 -0.237057 -0.801241 -0.410671 -3.52779 
194 3.38747 4.26008 52.6041 -1.41018 -1.71388 0.389579 -0.390584 -0.639291 0.587546 -3.52746 
195 -0.866323 4.2769 53.8949 -0.0507542 -0.206278 -1.18035 0.0794187 -1.26167 1.02744 -3.38132 
196 1.3298 4.1174 -56.3442 5.06946 2.90545 1.60237 -1.25481 -0.27388 0.110283 -2.79034 
197 -1.33605 6.40133 55.1665 4.17974 2.79763 1.28986 0.319872 -1.52326 0.198062 -3.26107 
198 1.00488 5.36129 55.1754 5.64246 6.63198 2.70794 0.370033 -0.636414 -0.0323897 -3.15047 
199 1.98371 6.26223 -55.1334 6.94001 9.11552 2.92943 0.134154 -0.847927 -0.525731 -3.02309 
200 3.34328 4.30996 55.1754 5.5307 7.35805 2.8693 0.11864 -0.278496 0.562771 -3.15115 
201 2.87095 2.09325 -56.362 4.04255 6.00651 1.88119 -3.16456 0.252728 0.341867 -2.79939 
202 2.84551 2.1252 -53.8874 0.165214 0.763428 -3.02641 -0.982034 -0.732788 -0.162342 -3.51266 
203 3.53831 4.21674 -55.1525 6.03169 6.27395 1.75924 0.302431 -1.21944 -0.0444638 -3.14331 
204 5.07312 2.13635 -55.1525 6.04998 7.03891 2.00305 0.446043 -0.528097 0.0805839 -3.14511 
205 1.29262 4.16451 -53.8815 0.86124 -0.347939 -3.67521 -0.408747 -0.573893 0.838988 -3.51412 
206 1.24176 4.17585 -51.3147 -1.28779 -1.91202 -0.381325 -0.214929 -0.88214 0.22027 -3.53905 
207 1.90264 6.26187 -52.5941 -0.918138 -1.45671 -0.572779 -0.184187 -1.1681 0.820019 -3.52793 
208 3.4607 4.22944 -52.6036 -0.749443 -0.926043 0.0948643 -0.677562 -0.496229 0.191255 -3.53019 
209 1.82403 6.27282 -50.0101 -1.64481 -2.33552 -0.275328 -0.193769 -1.27031 0.432173 -3.53676 
210 5.01221 2.17771 -52.6036 -1.34226 -0.348887 0.0540519 -0.502641 0.0190717 0.991429 -3.52953 
211 2.80522 2.14769 -51.32 -1.1043 -0.947774 -0.119736 -0.278489 -0.334857 0.262437 -3.53416 
212 2.77279 2.17445 -48.7407 -1.98542 -1.84482 -0.566184 -0.292479 -0.198555 0.342547 -3.53086 
213 3.40036 4.25787 -50.02 -1.43853 -1.66009 -0.153668 -0.410651 -0.696886 0.289814 -3.53495 
214 4.971 2.23184 -50.02 -1.85183 -1.27792 -0.125321 -0.297227 0.032313 0.837528 -3.53499 
215 1.19026 4.18031 -48.7357 -2.19667 -2.768 -0.809402 -0.181773 -0.82789 0.279704 -3.53641 
216 1.14135 4.18613 -46.1545 -2.66141 -3.1991 -1.00063 -0.163551 -0.817487 0.398994 -3.53606 
217 1.74973 6.27853 -47.4309 -2.11918 -2.83854 -0.698403 -0.21457 -1.22787 0.544696 -3.5359 
218 3.34605 4.28732 -47.4414 -1.91151 -2.21068 -0.585417 -0.301225 -0.620383 0.341207 -3.53416 
219 1.67653 6.29017 -44.85 -2.49254 -3.19528 -0.885906 -0.20123 -1.23273 0.603489 -3.53536 
220 4.93577 2.28424 -47.4406 -2.33563 -1.78988 -0.559044 -0.211121 0.124134 0.866737 -3.5342 
221 2.74349 2.20151 -46.1598 -2.38799 -2.27092 -0.761198 -0.230084 -0.142414 0.395631 -3.53075 
222 2.71577 2.22998 -43.5783 -2.70444 -2.59126 -0.972604 -0.212913 -0.133888 0.415603 -3.53038 
223 3.2933 4.31938 -44.861 -2.25499 -2.57348 -0.739403 -0.260441 -0.609834 0.375844 -3.53393 
224 4.90359 2.33716 -44.86 -2.67942 -2.143 -0.739518 -0.175931 0.158362 0.89766 -3.53392 
225 1.09287 4.19447 -43.5729 -3.00296 -3.5178 -1.2285 -0.149576 -0.827131 0.425298 -3.53554 
226 1.04408 4.20358 -40.9921 -3.26478 -3.79204 -1.46891 -0.146269 -0.841606 0.432746 -3.53509 
227 1.60333 6.30354 -42.2693 -2.77755 -3.50046 -1.11266 -0.200244 -1.25157 0.619654 -3.53485 
228 3.24126 4.35294 -42.2803 -2.53154 -2.86831 -0.939511 -0.243044 -0.61424 0.393181 -3.53361 
229 1.52949 6.31764 -39.6897 -2.99021 -3.76679 -1.35597 -0.206841 -1.27194 0.623818 -3.53439 
230 4.87273 2.39102 -42.2792 -2.96627 -2.42341 -0.945658 -0.164747 0.167808 0.922582 -3.53359 
231 2.68837 2.25926 -40.9974 -2.96196 -2.85161 -1.20218 -0.209518 -0.133755 0.429708 -3.53006 
232 2.66089 2.28919 -38.418 -3.17587 -3.0662 -1.4433 -0.21392 -0.134548 0.441405 -3.52981 
233 3.18926 4.38761 -39.7006 -2.7505 -3.10735 -1.16316 -0.237325 -0.620937 0.403438 -3.53333 
234 4.84227 2.44591 -39.6994 -3.20453 -2.64014 -1.16962 -0.165181 0.170881 0.944326 -3.53332 
235 0.994721 4.21303 -38.413 -3.46564 -4.03568 -1.71888 -0.150544 -0.855503 0.434542 -3.53468 
236 0.944781 4.22275 -35.8362 -3.6074 -4.24533 -1.97318 -0.159624 -0.867066 0.429732 -3.5343 
237 1.45485 6.33229 -37.1124 -3.13372 -3.98976 -1.6073 -0.217439 -1.2892 0.619158 -3.53399 
238 3.13708 4.42327 -37.1229 -2.91285 -3.2905 -1.39652 -0.240587 -0.628992 0.405574 -3.53314 
239 1.37949 6.34751 -34.5382 -3.20899 -4.15821 -1.85301 -0.227909 -1.30281 0.60073 -3.53368 
240 4.81196 2.50182 -37.1217 -3.39236 -2.79604 -1.40205 -0.175516 0.169166 0.958412 -3.53313 
241 2.63327 2.31973 -35.841 -3.34577 -3.23505 -1.68852 -0.225549 -0.137879 0.447325 -3.52963 
242 2.60551 2.3508 -33.2668 -3.46747 -3.35573 -1.9277 -0.244232 -0.14712 0.443585 -3.52954 
243 3.08466 4.45979 -34.548 -3.01667 -3.41627 -1.62616 -0.252235 -0.641694 0.394287 -3.53306 
244 4.78174 2.55863 -34.5467 -3.52496 -2.89297 -1.6311 -0.195891 0.157574 0.959709 -3.53305 
245 0.894346 4.23274 -33.2625 -3.68962 -4.41202 -2.22052 -0.170254 -0.876481 0.414296 -3.53399 
246 0.843512 4.2429 -30.6921 -3.71975 -4.53302 -2.44743 -0.179513 -0.884463 0.387207 -3.53379 
247 1.30353 6.36314 -31.9675 -3.22597 -4.27014 -2.07692 -0.235286 -1.31372 0.566233 -3.53349 
248 3.03192 4.4969 -31.9764 -3.06681 -3.4917 -1.83955 -0.270645 -0.659969 0.368397 -3.53306 
249 1.22705 6.37883 -29.4003 -3.20245 -4.33523 -2.26803 -0.23857 -1.32239 0.51923 -3.53342 
250 4.75146 2.61604 -31.9749 -3.60508 -2.94009 -1.84469 -0.22475 0.13363 0.94803 -3.53304 
251 2.57755 2.38219 -30.6959 -3.54259 -3.4323 -2.14975 -0.268248 -0.1629 0.429964 -3.52953 
252 2.54928 2.41369 -28.1282 -3.5797 -3.47516 -2.34633 -0.294697 -0.182813 0.409805 -3.52956 
253 2.9787 4.53416 -29.4081 -3.07575 -3.53075 -2.02851 -0.292852 -0.681338 0.33239 -3.5331 
254 4.72086 2.67373 -29.4065 -3.64328 -2.95257 -2.0343 -0.258713 0.100106 0.927785 -3.53308 
255 0.792335 4.25302 -28.1251 -3.71244 -4.61423 -2.64434 -0.185626 -0.891326 0.351629 -3.53367 
256 0.740845 4.26286 -25.5612 -3.68278 -4.66538 -2.80773 -0.187968 -0.897019 0.312181 -3.53361 
257 1.1501 6.3942 -26.8363 -3.15591 -4.36722 -2.42309 -0.237903 -1.32878 0.465835 -3.53342 
258 2.92486 4.57118 -26.8429 -3.05763 -3.54704 -2.18972 -0.315586 -0.702711 0.292272 -3.53316 
259 1.07271 6.40891 -24.275 -3.09953 -4.37843 -2.54448 -0.233705 -1.33305 0.411463 -3.53347 
260 4.68966 2.73138 -26.8411 -3.65201 -2.94493 -2.19597 -0.294121 0.0619194 0.903942 -3.53314 
261 2.52055 2.44506 -25.5635 -3.58976 -3.49589 -2.51352 -0.320809 -0.203843 0.387094 -3.52961 
262 2.4913 2.47616 -23.0015 -3.58249 -3.50392 -2.65119 -0.344674 -0.223807 0.36471 -3.52966 
263 2.87033 4.60768 -24.2804 -3.02429 -3.55078 -2.32333 -0.336248 -0.72196 0.252584 -3.53322 
264 4.65765 2.7888 -24.2785 -3.64195 -2.928 -2.32947 -0.328254 0.0233871 0.880055 -3.53319 
265 0.689066 4.27223 -22.9998 -3.6425 -4.69593 -2.93885 -0.186633 -0.901488 0.272682 -3.53359 
266 0.637024 4.28101 -20.4406 -3.59921 -4.71332 -3.04151 -0.182041 -0.904812 0.235462 -3.53359 
267 0.994926 6.42272 -21.7159 -3.04179 -4.37797 -2.63722 -0.226409 -1.33564 0.359604 -3.53353 
268 2.81507 4.64348 -21.7202 -2.98409 -3.54863 -2.43147 -0.353305 -0.738112 0.215843 -3.53326 
269 0.916803 6.43552 -19.1585 -2.98747 -4.37186 -2.70687 -0.216437 -1.33704 0.311948 -3.5336 
270 4.6247 2.84585 -21.7182 -3.62103 -2.90879 -2.4369 -0.359571 -0.0127455 0.858115 -3.53323 
271 2.46148 2.50688 -20.4417 -3.56518 -3.50573 -2.76167 -0.365308 -0.241573 0.344195 -3.5297 
272 2.43109 2.53719 -17.8837 -3.54268 -3.50534 -2.84847 -0.382406 -0.25678 0.326133 -3.52973 
273 2.75909 4.67847 -19.1619 -2.94232 -3.5446 -2.51724 -0.366152 -0.751019 0.183032 -3.53329 
274 4.59078 2.90244 -19.1598 -3.5946 -2.89131 -2.52159 -0.387422 -0.045188 0.838965 -3.53326 
275 0.584751 4.28912 -17.8832 -3.5573 -4.72278 -3.12034 -0.174708 -0.907151 0.201565 -3.53361 
276 0.532282 4.29652 -15.3271 -3.51897 -4.72772 -3.17982 -0.165123 -0.908678 0.171188 -3.53362 
277 0.83839 6.44722 -16.6025 -2.93885 -4.36377 -2.75846 -0.204194 -1.33767 0.26894 -3.53367 
278 2.70244 4.71262 -16.605 -2.90202 -3.54093 -2.58399 -0.374788 -0.760977 0.15422 -3.53331 
279 0.759738 6.45781 -14.0476 -2.89678 -4.35576 -2.79614 -0.190059 -1.33784 0.230325 -3.53373 
280 4.55589 2.95854 -16.6029 -3.56603 -2.87752 -2.58715 -0.4117 -0.0736487 0.822741 -3.53329 
281 2.40017 2.56704 -15.3271 -3.51804 -3.50502 -2.91535 -0.396061 -0.269513 0.310548 -3.52976 
282 2.36874 2.59643 -12.7717 -3.49306 -3.50594 -2.96579 -0.406546 -0.280073 0.297199 -3.52978 
283 2.64517 4.7459 -14.0494 -2.86474 -3.53877 -2.63492 -0.379525 -0.768461 0.129018 -3.53333 
284 4.52007 3.01411 -14.0472 -3.53731 -2.86818 -2.63696 -0.432574 -0.0983993 0.809207 -3.53331 
285 0.479654 4.3032 -12.772 -3.48519 -4.73027 -3.22383 -0.153701 -0.909564 0.144071 -3.53364 
286 0.426903 4.30914 -10.2178 -3.45625 -4.7317 -3.2555 -0.140782 -0.909977 0.119745 -3.53366 
287 0.680895 6.46728 -11.4935 -2.86138 -4.34891 -2.82311 -0.174374 -1.33777 0.195515 -3.53377 
288 2.58733 4.77832 -11.4947 -2.83119 -3.53859 -2.67286 -0.380795 -0.773983 0.106855 -3.53334 
289 0.601908 6.47564 -8.93997 -2.83237 -4.3437 -2.84179 -0.157451 -1.33765 0.163812 -3.53381 
290 4.48337 3.06916 -11.4925 -3.5096 -2.86333 -2.67395 -0.450327 -0.119971 0.797962 -3.53332 
291 2.33684 2.62536 -10.2171 -3.46881 -3.50861 -3.00278 -0.414192 -0.28884 0.285739 -3.5298 
292 2.3045 2.65382 -7.6632 -3.4459 -3.51318 -3.02875 -0.419325 -0.296204 0.275801 -3.52982 
293 2.52898 4.80989 -8.94065 -2.8016 -3.54053 -2.70014 -0.379047 -0.778024 0.0871196 -3.53335 
294 4.44582 3.12366 -8.93841 -3.48351 -2.8627 -2.70046 -0.465264 -0.138975 0.788564 -3.53334 
295 0.374067 4.31437 -7.66407 -3.43217 -4.73274 -3.27725 -0.126655 -0.910074 0.0976838 -3.53367 
296 0.321176 4.31888 -5.11077 -3.41281 -4.73378 -3.2909 -0.111574 -0.909994 0.0773604 -3.53368 
297 0.522816 6.4829 -6.38685 -2.80934 -4.34031 -2.85389 -0.139569 -1.33757 0.134509 -3.53384 
298 2.47016 4.84061 -6.38711 -2.77598 -3.54451 -2.71859 -0.374697 -0.78101 0.069225 -3.53336 
299 0.443657 6.48908 -3.83399 -2.79188 -4.33875 -2.8606 -0.120971 -1.33762 0.106941 -3.53386 
300 4.40748 3.17762 -6.38484 -3.45939 -2.8659 -2.71832 -0.477673 -0.156013 0.780588 -3.53335 
301 2.27178 2.68183 -5.10969 -3.4247 -3.5196 -3.04553 -0.422235 -0.302539 0.267031 -3.52983 
302 2.23868 2.70937 -2.55646 -3.40545 -3.52777 -3.05445 -0.42317 -0.308181 0.259102 -3.52983 
303 2.41093 4.87049 -3.83388 -2.75424 -3.55042 -2.7296 -0.368098 -0.7833 0.0526317 -3.53337 
304 4.36839 3.23104 -3.8316 -3.43743 -2.87256 -2.72883 -0.487794 -0.171634 0.773646 -3.53335 
305 0.268259 4.32269 -2.55772 -3.39804 -4.73503 -3.29766 -0.0957675 -0.909842 0.0582761 -3.53369 
306 0.364463 6.49419 -1.28128 -2.77964 -4.339 -2.86267 -0.101871 -1.33783 0.0804949 -3.53387 
307 2.3513 4.89954 -1.28084 -2.73631 -3.5581 -2.73411 -0.359533 -0.785194 0.0368481 -3.53337 
308 4.32859 3.2839 -1.27855 -3.41776 -2.88234 -2.73288 -0.495808 -0.186333 0.767394 -3.53336 
309 2.4362 7.09171 -0.00444358 -2.21163 -3.35817 -2.40389 -0.320386 -1.19056 -0.176379 -3.53293 
310 0.43445 8.66914 -0.00492752 -2.24707 -4.01458 -2.49522 -0.103138 -1.72624 0.0903495 -3.53362 
311 0.328899 8.67378 2.54745 -2.24328 -4.01817 -2.49178 -0.0815884 -1.72738 0.0573016 -3.53362 