ITEM: TIMESTEP
203
ITEM: NUMBER OF ATOMS
37664
ITEM: BOX BOUNDS ff ff ff
-100 100
-100 100
-156.15 156.15
ITEM: ATOMS id x y z v_peratom_sxx v_peratom_syy v_peratom_szz v_peratom_sxy v_peratom_sxz v_peratom_syz c_atomPE 
1 -0.00380359 -0.00111531 -0.00453131 -5.18101 -5.16743 -9.53938 -0.00779918 0.050484 -0.0528651 -3.51527 
2 -0.0044138 -0.00095513 2.54871 -5.17315 -5.16361 -9.53006 -0.00848022 0.0520403 -0.052089 -3.5153 
3 -0.00495929 -0.000789182 5.10211 -5.16178 -5.1561 -9.51117 -0.00903858 0.0532782 -0.050533 -3.51539 
4 -0.00543379 -0.000608249 7.65582 -5.1466 -5.1446 -9.48203 -0.0095333 0.0542529 -0.0482156 -3.51552 
5 -0.00583314 -0.000404678 10.21 -5.1269 -5.12842 -9.44116 -0.0100107 0.0550168 -0.0451922 -3.51571 
6 -0.00615519 -0.000173684 12.7648 -5.1015 -5.1064 -9.38624 -0.010493 0.0555878 -0.0415737 -3.51596 
7 -0.00639955 8.55204e-05 15.3204 -5.06864 -5.07683 -9.31407 -0.0109737 0.0559457 -0.0375351 -3.51629 
8 -0.00656691 0.000369083 17.8771 -5.02588 -5.03729 -9.22045 -0.0114208 0.0560536 -0.033306 -3.51672 
9 -0.00665806 0.000668456 20.4353 -4.96998 -4.9845 -9.10022 -0.0117874 0.0558891 -0.0291483 -3.51727 
10 -0.00667287 0.000970926 22.9952 -4.89662 -4.91411 -8.94746 -0.0120254 0.05547 -0.0253281 -3.51795 
11 -0.00660949 0.00126064 25.5573 -4.80038 -4.82057 -8.75619 -0.012098 0.0548654 -0.0220872 -3.5188 
12 -0.00646382 0.00152007 28.122 -4.67494 -4.69746 -8.52204 -0.0119885 0.0541898 -0.0196141 -3.51982 
13 -0.00622946 0.00173163 30.6897 -4.51455 -4.53892 -8.2454 -0.0117027 0.0535839 -0.0180183 -3.52101 
14 -0.00589777 0.00187924 33.2607 -4.31776 -4.34342 -7.935 -0.0112641 0.0531892 -0.0173169 -3.5223 
15 -0.00545793 0.00194877 35.8348 -4.09257 -4.11888 -7.6083 -0.0107018 0.0531306 -0.0174551 -3.52356 
16 -0.00489701 0.00192689 38.4117 -3.85506 -3.88134 -7.28359 -0.010036 0.0534899 -0.0183597 -3.52465 
17 -0.00419924 0.00179821 40.9911 -3.6168 -3.64234 -6.96721 -0.00926191 0.0542947 -0.020008 -3.52554 
18 -0.00333997 0.00154052 43.5727 -3.37874 -3.40264 -6.64633 -0.00832123 0.0556805 -0.0224901 -3.52626 
19 -0.00227458 0.00111868 46.1567 -3.11583 -3.13653 -6.28454 -0.00700034 0.0579316 -0.0259526 -3.527 
20 -0.000948236 0.000477981 48.7434 -2.73718 -2.74882 -5.8476 -0.00381159 0.0598735 -0.0303262 -3.52786 
21 5.95933e-07 -4.11185e-08 51.3317 -1.92238 -1.92146 -4.91501 0.000273386 -0.00310201 0.00162225 -3.53203 
22 4.01304e-07 -1.42881e-06 53.9138 -0.852519 -0.852543 -8.91791 -5.42652e-06 -6.65338e-05 -7.42335e-05 -3.48168 
23 8.71386e-07 -1.98378e-06 56.3885 1.68539 1.68541 1.87612 -4.59906e-05 5.57913e-05 4.45418e-06 -2.55581 
24 -1.23087e-07 -1.12453e-06 -53.8876 -2.60577 -2.60585 -6.54915 -2.20746e-05 1.42304e-05 -5.05671e-05 -3.40184 
25 1.02659e-07 -1.55837e-06 -51.3239 -2.0803 -2.08188 -5.59666 -0.000531301 -0.00360834 0.0028917 -3.52875 
26 0.000989866 -0.000782235 -48.7468 -2.7454 -2.72921 -6.20704 0.00529403 0.0618953 -0.0490597 -3.52619 
27 0.00218609 -0.00181308 -46.1657 -3.07881 -3.05375 -6.41168 0.00983609 0.0539673 -0.044715 -3.52658 
28 0.00285893 -0.0025585 -43.5838 -3.35777 -3.33047 -6.6701 0.0111716 0.0520475 -0.0391131 -3.52615 
29 0.00322001 -0.00307322 -41.0029 -3.60931 -3.58095 -6.95356 0.0115582 0.0526384 -0.0342994 -3.52557 
30 0.00338349 -0.00340658 -38.4236 -3.85516 -3.82605 -7.25635 0.0113841 0.0539142 -0.0306534 -3.52475 
31 0.00341361 -0.00359366 -35.8464 -4.0973 -4.06741 -7.57535 0.0108279 0.0548356 -0.0283018 -3.52371 
32 0.00334548 -0.00366164 -33.2719 -4.32698 -4.29614 -7.90015 0.0100083 0.0548565 -0.0272358 -3.52249 
33 0.00319529 -0.00363297 -30.7005 -4.53161 -4.49963 -8.2137 0.00901496 0.0537599 -0.027334 -3.52122 
34 0.00296619 -0.00352646 -28.1322 -4.70276 -4.66955 -8.49916 0.00790016 0.0516229 -0.0284233 -3.52001 
35 0.00265391 -0.00335841 -25.5669 -4.83917 -4.80478 -8.7459 0.00667622 0.0487845 -0.0303244 -3.51894 
36 0.00225258 -0.0031439 -23.0044 -4.94432 -4.90902 -8.95065 0.00532902 0.0457606 -0.0328599 -3.51802 
37 0.00175985 -0.00289764 -20.4442 -5.02337 -4.98768 -9.11528 0.00383986 0.0431048 -0.0358519 -3.51728 
38 0.00118008 -0.00263417 -17.8859 -5.08144 -5.04609 -9.24434 0.00220885 0.0412788 -0.0391133 -3.51668 
39 0.00052533 -0.00236733 -15.3291 -5.12297 -5.08882 -9.34314 0.000473046 0.040554 -0.0424353 -3.51622 
40 -0.000185639 -0.00210924 -12.7735 -5.15157 -5.1195 -9.41684 -0.00129164 0.0409607 -0.0455906 -3.51587 
41 -0.000929956 -0.00186883 -10.2188 -5.17011 -5.14092 -9.46994 -0.00298874 0.0423065 -0.0483592 -3.51562 
42 -0.00168392 -0.00165082 -7.6647 -5.18085 -5.15515 -9.50619 -0.00452905 0.0442598 -0.050563 -3.51544 
43 -0.00242577 -0.0014555 -5.11109 -5.18549 -5.16369 -9.52853 -0.00585252 0.0464579 -0.0520842 -3.51533 
44 -0.00313718 -0.00127922 -2.55775 -5.18527 -5.16757 -9.53911 -0.00693754 0.0485974 -0.0528604 -3.51527 
45 0.0919547 2.15906 1.27114 -4.05232 -5.13024 -3.83388 -0.0591199 -0.423427 -0.0015196 -3.52911 
46 0.0652128 2.16017 3.8244 -4.04519 -5.12951 -3.82306 -0.0457865 -0.42287 -0.0106556 -3.52912 
47 0.0385346 2.16096 6.37788 -4.0408 -5.12701 -3.8044 -0.0323703 -0.422445 -0.019738 -3.52914 
48 0.0119329 2.16142 8.93174 -4.0392 -5.12246 -3.77703 -0.0190643 -0.422117 -0.0290856 -3.52917 
49 -0.01458 2.16156 11.4861 -4.04042 -5.1153 -3.7395 -0.00604387 -0.42185 -0.0390677 -3.5292 
50 -0.040992 2.16139 14.0413 -4.04438 -5.10466 -3.68969 0.00652112 -0.421608 -0.050114 -3.52924 
51 -0.0672918 2.1609 16.5974 -4.0508 -5.08913 -3.62479 0.0184444 -0.421352 -0.0627041 -3.52929 
52 -0.0934688 2.16009 19.1547 -4.05894 -5.06668 -3.54119 0.0294928 -0.421037 -0.0773246 -3.52935 
53 -0.119513 2.15895 21.7135 -4.06732 -5.03429 -3.43458 0.0393559 -0.420598 -0.0943681 -3.52943 
54 -0.145416 2.1575 24.2743 -4.07303 -4.98765 -3.30018 0.0476332 -0.419949 -0.113927 -3.52954 
55 -0.171168 2.15574 26.8375 -4.07086 -4.92077 -3.13356 0.0538722 -0.418967 -0.135421 -3.52969 
56 -0.196759 2.15373 29.4034 -4.05202 -4.82593 -2.93229 0.0577082 -0.417488 -0.157071 -3.52988 
57 -0.222173 2.15154 31.9725 -4.00394 -4.69507 -2.69853 0.0591474 -0.415286 -0.175638 -3.53015 
58 -0.24738 2.14926 34.5449 -3.91339 -4.52382 -2.44126 0.0589057 -0.412048 -0.187581 -3.5305 
59 -0.272327 2.14691 37.1204 -3.7753 -4.31759 -2.17464 0.0584072 -0.407372 -0.192637 -3.53091 
60 -0.296949 2.14442 39.6986 -3.59827 -4.09094 -1.91001 0.0590838 -0.400934 -0.195924 -3.53131 
61 -0.321204 2.14169 42.2791 -3.39439 -3.85439 -1.64742 0.0615611 -0.392916 -0.203683 -3.53167 
62 -0.345103 2.13861 44.8615 -3.17051 -3.60446 -1.37496 0.0650755 -0.383711 -0.222694 -3.53196 
63 -0.368753 2.13539 47.4461 -2.89776 -3.291 -1.08776 0.0663236 -0.374489 -0.24508 -3.53225 
64 -0.392512 2.13371 50.032 -2.42069 -2.80016 -0.480066 0.0548843 -0.402807 -0.211238 -3.53326 
65 -0.418483 2.1304 52.6263 -1.76604 -2.00501 -0.561074 0.0453429 -0.308847 -0.730334 -3.52456 
66 -0.44812 2.14653 55.1778 6.97702 7.73857 2.43062 0.0331197 -0.597283 1.77001 -3.02528 
67 0.649859 2.05055 -55.162 1.38972 0.842745 -0.677388 -0.188222 -0.0991847 1.20779 -3.26036 
68 0.633027 2.08274 -52.6122 -1.11267 -2.21902 -0.457911 -0.374588 -0.489185 -0.16163 -3.53568 
69 0.607028 2.08678 -50.0319 -2.01027 -2.57815 -0.900445 -0.156497 -0.414508 0.076179 -3.53401 
70 0.583092 2.0879 -47.4538 -2.68104 -3.09213 -1.25678 -0.125362 -0.372947 0.149092 -3.53289 
71 0.559492 2.09111 -44.8723 -3.10923 -3.46063 -1.41407 -0.101755 -0.373318 0.19441 -3.53222 
72 0.535606 2.09521 -42.2909 -3.40973 -3.74424 -1.64077 -0.0908329 -0.37986 0.208054 -3.53178 
73 0.511312 2.09961 -39.7107 -3.65358 -3.99821 -1.88849 -0.0878677 -0.38713 0.215864 -3.53135 
74 0.486606 2.10419 -37.1324 -3.85566 -4.23409 -2.14871 -0.0909727 -0.393745 0.22084 -3.53091 
75 0.461543 2.10893 -34.5566 -4.01336 -4.44689 -2.4146 -0.0985247 -0.399589 0.22063 -3.53049 
76 0.436188 2.1138 -31.9838 -4.12264 -4.62693 -2.67442 -0.108317 -0.405057 0.212601 -3.53011 
77 0.410592 2.11876 -29.4143 -4.18672 -4.76908 -2.91475 -0.117966 -0.410394 0.196803 -3.52981 
78 0.384776 2.1237 -26.8479 -4.21559 -4.87543 -3.12565 -0.125706 -0.415463 0.175825 -3.52959 
79 0.358752 2.1285 -24.2845 -4.22059 -4.95232 -3.30283 -0.130688 -0.419938 0.152701 -3.52942 
80 0.332529 2.13308 -21.7235 -4.21102 -5.00687 -3.44669 -0.132747 -0.423515 0.129673 -3.52931 
81 0.306124 2.13739 -19.1646 -4.19342 -5.0453 -3.56036 -0.132049 -0.426009 0.108019 -3.52923 
82 0.279562 2.14137 -16.6074 -4.17202 -5.0724 -3.64811 -0.128855 -0.427401 0.0883115 -3.52917 
83 0.252876 2.14499 -14.0514 -4.14957 -5.09163 -3.71431 -0.123419 -0.427832 0.0707033 -3.52913 
84 0.226103 2.14826 -11.4965 -4.12778 -5.10536 -3.76291 -0.115996 -0.427549 0.0551144 -3.52911 
85 0.199277 2.15114 -8.94228 -4.1077 -5.11517 -3.79722 -0.106861 -0.426829 0.0413352 -3.5291 
86 0.172426 2.15366 -6.38857 -4.08991 -5.12206 -3.81986 -0.0963075 -0.425912 0.0290872 -3.52909 
87 0.145576 2.15582 -3.83521 -4.0747 -5.12665 -3.83274 -0.0846396 -0.424977 0.0180639 -3.52909 
88 0.118747 2.15761 -1.28201 -4.06216 -5.12931 -3.83717 -0.0721527 -0.424132 0.00795924 -3.5291 
89 0.214735 4.32582 -0.00581435 -3.39014 -4.73683 -3.29719 -0.0827288 -0.905468 0.0406465 -3.53371 
90 0.284538 6.49823 1.27046 -2.77433 -4.34204 -2.85957 -0.0853934 -1.33537 0.0552936 -3.53388 
91 2.20464 2.73635 -0.00413701 -3.39015 -3.53626 -3.05763 -0.424531 -0.309642 0.253232 -3.52984 
92 2.17077 2.76295 2.54902 -3.374 -3.54787 -3.0518 -0.421455 -0.314837 0.246043 -3.52984 
93 2.29061 4.92764 1.27139 -2.72345 -3.56664 -2.73362 -0.351033 -0.784195 0.0231717 -3.53337 
94 4.28739 3.33602 1.2739 -3.40211 -2.89447 -2.73179 -0.503352 -0.198725 0.761595 -3.53336 
95 0.161733 4.3282 2.54721 -3.3834 -4.73862 -3.29147 -0.0653228 -0.905529 0.0226084 -3.53371 
96 0.108779 4.3299 5.10039 -3.38095 -4.74064 -3.27991 -0.0477763 -0.905729 0.00447033 -3.53371 
97 0.20527 6.5012 3.82328 -2.77151 -4.34568 -2.85282 -0.0651427 -1.33618 0.0293553 -3.53388 
98 2.23021 4.955 3.82449 -2.71234 -3.57776 -2.72553 -0.338611 -0.786114 0.00761016 -3.53338 
99 0.126054 6.50312 6.37631 -2.77347 -4.35101 -2.84164 -0.0448778 -1.33726 0.00287686 -3.53387 
100 4.24613 3.38774 3.82701 -3.38625 -2.91011 -2.72328 -0.507014 -0.212842 0.755827 -3.53337 
101 2.13659 2.78908 5.10233 -3.36025 -3.56079 -3.0394 -0.416787 -0.320196 0.238818 -3.52984 
102 2.10214 2.81474 7.65593 -3.34901 -3.57492 -3.01995 -0.410524 -0.325921 0.231276 -3.52984 
103 2.1695 4.98151 6.37781 -2.70502 -3.59031 -2.71153 -0.324637 -0.788331 -0.00848689 -3.53338 
104 4.20422 3.43887 6.38032 -3.373 -2.92843 -2.70872 -0.508678 -0.22727 0.74986 -3.53337 
105 0.0558928 4.33092 7.65386 -3.38292 -4.74282 -3.26202 -0.0302642 -0.906048 -0.0142281 -3.53371 
106 0.00309616 4.33126 10.2078 -3.38957 -4.74502 -3.2369 -0.0129459 -0.90646 -0.0339931 -3.53371 
107 0.0469189 6.50399 8.92965 -2.78047 -4.35805 -2.8255 -0.0247351 -1.33861 -0.0247264 -3.53385 
108 2.10852 5.00717 8.93147 -2.70173 -3.60423 -2.69101 -0.309104 -0.791035 -0.0255941 -3.53337 
109 -0.032107 6.50381 11.4834 -2.79298 -4.36678 -2.80347 -0.00485215 -1.34025 -0.0541042 -3.53382 
110 4.16168 3.48939 8.93397 -3.36252 -2.94946 -2.68747 -0.508202 -0.242384 0.743375 -3.53337 
111 2.06741 2.83992 10.21 -3.34042 -3.59013 -2.9925 -0.402574 -0.332234 0.223092 -3.52983 
112 2.03242 2.86459 12.7646 -3.33459 -3.60619 -2.95558 -0.392757 -0.339397 0.213879 -3.52982 
113 2.04728 5.03195 11.4856 -2.70279 -3.61939 -2.66295 -0.291943 -0.794443 -0.044258 -3.53337 
114 4.11852 3.53927 11.4881 -3.355 -2.97327 -2.65849 -0.505341 -0.2586 0.735994 -3.53337 
115 -0.049589 4.33093 12.7622 -3.40128 -4.74691 -3.20311 0.00402795 -0.90693 -0.0553955 -3.5337 
116 -0.102139 4.32991 15.3175 -3.41842 -4.74787 -3.15867 0.0205041 -0.907404 -0.0790709 -3.5337 
117 -0.110991 6.50257 14.0378 -2.81159 -4.37704 -2.77421 0.0146277 -1.34218 -0.0859869 -3.53379 
118 1.98579 5.05583 14.0405 -2.70863 -3.63557 -2.62583 -0.273028 -0.798818 -0.0651148 -3.53336 
119 -0.189699 6.50026 16.593 -2.83696 -4.38841 -2.73578 0.0335534 -1.34435 -0.121174 -3.53374 
120 4.07474 3.58848 14.0429 -3.35063 -2.99988 -2.62027 -0.499751 -0.276394 0.72725 -3.53336 
121 1.99717 2.88875 15.3201 -3.33155 -3.62269 -2.9071 -0.38082 -0.347719 0.203173 -3.5298 
122 1.96169 2.91236 17.8766 -3.33114 -3.63884 -2.84438 -0.366454 -0.357548 0.190443 -3.52978 
123 1.92409 5.07878 16.5962 -2.71966 -3.65228 -2.5776 -0.252198 -0.804467 -0.0888841 -3.53335 
124 4.03036 3.637 16.5986 -3.3495 -3.02916 -2.57082 -0.491002 -0.296306 0.716573 -3.53335 
125 -0.15453 4.32821 17.8738 -3.44125 -4.74682 -3.1009 0.036309 -0.907804 -0.105686 -3.53369 
126 -0.206738 4.32582 20.4313 -3.4696 -4.74198 -3.02637 0.051219 -0.908011 -0.135848 -3.53369 
127 -0.268194 6.49688 19.1493 -2.86958 -4.4 -2.68554 0.0517644 -1.34662 -0.160473 -3.53369 
128 1.86218 5.10076 19.153 -2.7361 -3.66867 -2.51562 -0.229284 -0.811732 -0.116319 -3.53333 
129 -0.346435 6.49242 21.7068 -2.90948 -4.41015 -2.61993 0.0690832 -1.34876 -0.204555 -3.53362 
130 3.98538 3.68477 19.1554 -3.35151 -3.06067 -2.50762 -0.478626 -0.318928 0.703283 -3.53334 
131 1.92597 2.93541 20.4345 -3.33274 -3.6533 -2.76409 -0.349356 -0.369238 0.175132 -3.52975 
132 1.89003 2.95788 22.9941 -3.33491 -3.66373 -2.66239 -0.32932 -0.383057 0.156778 -3.52971 
133 1.80009 5.12175 21.7113 -2.75779 -3.68321 -2.43665 -0.204179 -0.820963 -0.148082 -3.5333 
134 3.93981 3.73175 21.7136 -3.3561 -3.09338 -2.42769 -0.462211 -0.344833 0.686645 -3.53331 
135 -0.258738 4.32274 22.9905 -3.50246 -4.73049 -2.93082 0.0649217 -0.907863 -0.169909 -3.53368 
136 -0.310511 4.31902 25.5517 -3.53716 -4.70783 -2.80941 0.0769754 -0.907178 -0.207601 -3.5337 
137 -0.424383 6.4869 24.2659 -2.95577 -4.4159 -2.53438 0.0852946 -1.35038 -0.253655 -3.53356 
138 1.73786 5.14173 24.2714 -2.78365 -3.69339 -2.33704 -0.176959 -0.832432 -0.184484 -3.53327 
139 -0.501999 6.48041 26.8272 -3.00567 -4.41228 -2.42331 0.100093 -1.35099 -0.307041 -3.5335 
140 3.89367 3.77792 24.2736 -3.36185 -3.12523 -2.32766 -0.441572 -0.374398 0.66601 -3.53328 
141 1.85391 2.97975 25.5557 -3.33474 -3.66634 -2.53523 -0.30641 -0.398982 0.135266 -3.52967 
142 1.81764 3.00106 28.1199 -3.32677 -3.65509 -2.37912 -0.281216 -0.416289 0.111324 -3.52961 
143 1.67552 5.16073 26.8336 -2.81092 -3.69514 -2.21303 -0.148101 -0.846145 -0.225005 -3.53323 
144 3.84704 3.82326 26.8358 -3.36577 -3.15252 -2.20401 -0.417025 -0.407418 0.641146 -3.53323 
145 -0.362039 4.31472 28.1154 -3.56811 -4.6672 -2.65733 0.0867994 -0.905771 -0.247433 -3.53373 
146 -0.413307 4.30998 30.682 -3.58509 -4.5991 -2.47141 0.0937712 -0.903447 -0.28603 -3.53382 
147 -0.579251 6.47309 29.3909 -3.05318 -4.39136 -2.28076 0.112981 -1.35013 -0.362235 -3.53348 
148 1.61312 5.17886 29.3984 -2.8339 -3.68224 -2.06146 -0.118792 -0.861418 -0.267531 -3.53317 
149 -0.656113 6.46521 31.9577 -3.08723 -4.34136 -2.10214 0.123169 -1.34744 -0.414286 -3.53351 
150 3.8 3.86781 29.4004 -3.36225 -3.16887 -2.05357 -0.38974 -0.442411 0.612849 -3.53317 
151 1.78132 3.0219 30.687 -3.30185 -3.62113 -2.19244 -0.255177 -0.432988 0.087234 -3.52956 
152 1.74512 3.04243 33.2574 -3.2469 -3.55325 -1.97726 -0.230713 -0.445546 0.0672211 -3.52955 
153 1.55079 5.19632 31.9663 -2.84228 -3.64561 -1.88084 -0.0912179 -0.876161 -0.307484 -3.53311 
154 3.75277 3.91172 31.9681 -3.34154 -3.1642 -1.87441 -0.362032 -0.475777 0.5838 -3.53311 
155 -0.464289 4.30501 33.2519 -3.57249 -4.49226 -2.25291 0.0975415 -0.899827 -0.318193 -3.53398 
156 -0.514928 4.30001 35.8252 -3.51274 -4.33783 -2.01051 0.0985417 -0.894077 -0.33939 -3.53425 
157 -0.732548 6.45715 34.5279 -3.09028 -4.24688 -1.88781 0.129693 -1.34245 -0.456159 -3.53364 
158 1.4887 5.21347 34.5374 -2.82006 -3.57314 -1.6729 -0.0684216 -0.886214 -0.337903 -3.53309 
159 -0.808475 6.44927 37.1017 -3.04112 -4.09335 -1.64787 0.132108 -1.3339 -0.482241 -3.5339 
160 3.70567 3.95521 34.5391 -3.28871 -3.12449 -1.66762 -0.337141 -0.501708 0.558968 -3.53308 
161 1.70922 3.06286 35.831 -3.14817 -3.44139 -1.74074 -0.210576 -0.450158 0.0558007 -3.52961 
162 1.67379 3.08327 38.4078 -3.00028 -3.28372 -1.49356 -0.195986 -0.446523 0.0525692 -3.52978 
163 1.42711 5.23068 37.1119 -2.74845 -3.45211 -1.4445 -0.0531797 -0.886401 -0.352905 -3.53315 
164 3.65907 3.99856 37.1134 -3.18585 -3.03544 -1.43982 -0.317948 -0.514863 0.543514 -3.53314 
165 -0.565126 4.29505 38.4017 -3.39709 -4.13816 -1.75929 0.098292 -0.885077 -0.35119 -3.5346 
166 -0.614778 4.28995 40.9807 -3.23319 -3.90918 -1.51144 0.0988697 -0.872356 -0.362668 -3.53494 
167 -0.883755 6.44168 39.6788 -2.92821 -3.88039 -1.40202 0.131522 -1.3201 -0.495701 -3.53427 
168 1.36626 5.24815 39.6894 -2.61705 -3.27782 -1.20742 -0.0459873 -0.87555 -0.355806 -3.53332 
169 -0.958276 6.43406 42.2582 -2.75991 -3.62792 -1.16773 0.130482 -1.30111 -0.50941 -3.53463 
170 3.61324 4.04191 39.6908 -3.02292 -2.89202 -1.20329 -0.304956 -0.516537 0.536057 -3.53331 
171 1.63885 3.10359 40.987 -2.81174 -3.08907 -1.24335 -0.185375 -0.439972 0.049488 -3.53001 
172 1.60433 3.12367 43.5683 -2.59267 -2.86534 -0.987714 -0.176368 -0.43709 0.0382017 -3.53028 
173 1.30622 5.26572 42.2693 -2.43237 -3.05934 -0.971679 -0.0441626 -0.860254 -0.361075 -3.53357 
174 3.56813 4.08517 42.2706 -2.80744 -2.70264 -0.969772 -0.296106 -0.516593 0.525775 -3.53355 
175 -0.663855 4.28451 43.5617 -3.03233 -3.66106 -1.26617 0.1013 -0.856803 -0.382368 -3.53525 
176 -0.712507 4.27868 46.1442 -2.80643 -3.39124 -1.00324 0.104712 -0.840315 -0.415907 -3.53551 
177 -1.0321 6.42621 44.839 -2.54309 -3.34262 -0.951342 0.130202 -1.27933 -0.528761 -3.53497 
178 1.24684 5.28322 44.8507 -2.20167 -2.80131 -0.738825 -0.0461693 -0.849038 -0.380242 -3.53388 
179 -1.10559 6.41846 47.4201 -2.28439 -3.01255 -0.764054 0.13152 -1.25907 -0.544149 -3.5353 
180 3.52355 4.12828 44.8518 -2.54504 -2.47464 -0.745073 -0.288959 -0.523918 0.504134 -3.53385 
181 1.57004 3.14348 46.1514 -2.34804 -2.61463 -0.709228 -0.168885 -0.445303 0.0104571 -3.53055 
182 1.53589 3.16345 48.7363 -2.0782 -2.3554 -0.338376 -0.180521 -0.465978 -0.0288854 -3.53017 
183 1.18769 5.3007 47.4329 -1.93191 -2.50127 -0.506898 -0.0608956 -0.854355 -0.425669 -3.53414 
184 3.47923 4.17128 47.4337 -2.23064 -2.21761 -0.53691 -0.284111 -0.548936 0.459718 -3.53406 
185 -0.761161 4.27349 48.7283 -2.59049 -3.06631 -0.655116 0.0980531 -0.825989 -0.424835 -3.5352 
186 -0.811621 4.26877 51.3169 -1.98863 -2.35012 0.316184 0.0838126 -0.843438 -0.652923 -3.53804 
187 -1.17889 6.41384 50.0002 -2.04853 -2.54084 -0.324624 0.0805937 -1.26683 -0.622303 -3.53575 
188 1.12775 5.31799 50.0156 -1.56619 -2.07509 -0.0146052 -0.108023 -0.937932 -0.593926 -3.53485 
189 -1.25707 6.40546 52.5877 -1.61223 -2.48675 0.643528 0.175989 -1.31655 -0.61272 -3.53281 
190 3.43505 4.21346 50.0156 -1.75669 -1.85062 -0.0355958 -0.307747 -0.662347 0.313814 -3.53491 
191 1.50027 3.18358 51.3264 -1.43152 -1.70078 0.659607 -0.172617 -0.550045 -0.132765 -3.53271 
192 1.46587 3.20964 53.9052 0.0265902 0.953857 -0.796277 0.566243 -0.561124 0.138757 -3.37565 
193 1.06597 5.33731 52.6041 -1.2494 -1.89876 0.441094 -0.237099 -0.801196 -0.41059 -3.52779 
194 3.38747 4.26008 52.6041 -1.4102 -1.71405 0.389427 -0.390537 -0.639211 0.587655 -3.52746 
195 -0.866323 4.2769 53.8949 -0.0506903 -0.206368 -1.1803 0.0794446 -1.26168 1.02743 -3.38132 
196 1.3298 4.1174 -56.3442 5.06948 2.90537 1.60234 -1.25486 -0.273873 0.110294 -2.79034 
197 -1.33605 6.40133 55.1665 4.17955 2.79774 1.28979 0.319843 -1.52329 0.198171 -3.26107 
198 1.00488 5.36129 55.1754 5.64268 6.63206 2.70805 0.370133 -0.636388 -0.0322556 -3.15047 
199 1.98371 6.26223 -55.1334 6.94009 9.11552 2.9296 0.134135 -0.84794 -0.525774 -3.02309 
200 3.34328 4.30996 55.1754 5.53073 7.35828 2.8694 0.118603 -0.27842 0.562851 -3.15115 
201 2.87095 2.09325 -56.362 4.04255 6.00652 1.8813 -3.16457 0.252777 0.341912 -2.79939 
202 2.84551 2.1252 -53.8874 0.165332 0.763505 -3.02637 -0.981991 -0.732771 -0.162328 -3.51266 
203 3.53831 4.21674 -55.1525 6.03171 6.27397 1.75917 0.302428 -1.2194 -0.0444586 -3.14331 
204 5.07312 2.13635 -55.1525 6.04999 7.03893 2.00298 0.44603 -0.528084 0.080612 -3.14511 
205 1.29262 4.16451 -53.8815 0.861228 -0.347759 -3.67529 -0.408671 -0.573899 0.838979 -3.51412 
206 1.24176 4.17585 -51.3147 -1.28824 -1.91251 -0.384467 -0.214917 -0.882815 0.220158 -3.53907 
207 1.90264 6.26187 -52.5941 -0.918224 -1.45664 -0.572589 -0.184177 -1.1681 0.820025 -3.52793 
208 3.4607 4.22944 -52.6036 -0.749709 -0.926154 0.0945633 -0.677572 -0.496274 0.191216 -3.5302 
209 1.82403 6.27282 -50.0101 -1.64637 -2.34041 -0.280786 -0.191318 -1.26606 0.432732 -3.53677 
210 5.01221 2.17771 -52.6036 -1.34244 -0.349074 0.0537543 -0.502668 0.0190436 0.991406 -3.52953 
211 2.80522 2.14769 -51.32 -1.10467 -0.948295 -0.123684 -0.278674 -0.335598 0.26261 -3.53417 
212 2.77301 2.17441 -48.7408 -1.99523 -1.84968 -0.577337 -0.293361 -0.187712 0.345447 -3.53086 
213 3.40036 4.25787 -50.02 -1.44302 -1.66379 -0.160864 -0.411761 -0.692138 0.291586 -3.53494 
214 4.971 2.23184 -50.02 -1.85684 -1.28063 -0.131743 -0.297769 0.0366888 0.838282 -3.53498 
215 1.19052 4.18031 -48.7358 -2.20829 -2.77455 -0.819904 -0.183281 -0.819293 0.280364 -3.5364 
216 1.14203 4.18609 -46.1547 -2.67809 -3.20462 -1.01261 -0.164809 -0.812192 0.399163 -3.53605 
217 1.75019 6.27856 -47.431 -2.13136 -2.84254 -0.709219 -0.216099 -1.22339 0.545429 -3.5359 
218 3.34644 4.28728 -47.4416 -1.92016 -2.21274 -0.596696 -0.301494 -0.613463 0.343725 -3.53416 
219 1.67725 6.29017 -44.8502 -2.50768 -3.19935 -0.896025 -0.202935 -1.22927 0.603756 -3.53536 
220 4.93611 2.28416 -47.4407 -2.34407 -1.79173 -0.568703 -0.211056 0.130803 0.867497 -3.5342 
221 2.74408 2.2014 -46.16 -2.40264 -2.27346 -0.773064 -0.230216 -0.13546 0.397281 -3.53075 
222 2.71659 2.22981 -43.5785 -2.72139 -2.59251 -0.984603 -0.21287 -0.128899 0.416701 -3.53037 
223 3.29396 4.31929 -44.8612 -2.26807 -2.57473 -0.749907 -0.260771 -0.605253 0.377654 -3.53393 
224 4.90418 2.33701 -44.8602 -2.69237 -2.14438 -0.748342 -0.175619 0.162908 0.897966 -3.53392 
225 1.09377 4.19438 -43.5732 -3.02131 -3.52264 -1.24014 -0.150443 -0.822873 0.42535 -3.53553 
226 1.04512 4.20344 -40.9925 -3.28399 -3.79618 -1.47989 -0.146666 -0.83779 0.433019 -3.53508 
227 1.60422 6.3035 -42.2696 -2.79421 -3.50399 -1.12231 -0.201758 -1.2486 0.619865 -3.53485 
228 3.24208 4.35281 -42.2806 -2.5463 -2.86884 -0.950164 -0.243322 -0.610758 0.394616 -3.5336 
229 1.53049 6.31756 -39.6901 -3.00811 -3.7697 -1.36513 -0.208047 -1.26929 0.624199 -3.53439 
230 4.87346 2.39083 -42.2794 -2.98107 -2.42393 -0.954591 -0.164344 0.171039 0.922594 -3.53358 
231 2.6893 2.25904 -40.9977 -2.97958 -2.85202 -1.21392 -0.209278 -0.129552 0.430762 -3.53006 
232 2.66187 2.28892 -38.4185 -3.19367 -3.06607 -1.45445 -0.213467 -0.130576 0.442651 -3.5298 
233 3.19017 4.38744 -39.701 -2.76613 -3.10728 -1.17377 -0.237457 -0.617969 0.404826 -3.53333 
234 4.84308 2.44567 -39.6997 -3.22005 -2.63995 -1.17854 -0.164674 0.173485 0.944276 -3.53331 
235 0.995833 4.21285 -38.4135 -3.48554 -4.03916 -1.72913 -0.150485 -0.851917 0.435188 -3.53467 
236 0.945927 4.22254 -35.8368 -3.62812 -4.24823 -1.9827 -0.159202 -0.863732 0.43081 -3.53428 
237 1.45592 6.33219 -37.1129 -3.15287 -3.99211 -1.61593 -0.218391 -1.28688 0.619823 -3.53398 
238 3.13803 4.42307 -37.1233 -2.92917 -3.28996 -1.40684 -0.240556 -0.626299 0.407097 -3.53314 
239 1.38058 6.34739 -34.5388 -3.22939 -4.16009 -1.86112 -0.228799 -1.30101 0.601734 -3.53367 
240 4.81279 2.50155 -37.122 -3.40821 -2.79536 -1.41071 -0.174909 0.171523 0.958456 -3.53312 
241 2.63426 2.31944 -35.8415 -3.36367 -3.23453 -1.6989 -0.224895 -0.133928 0.448854 -3.52962 
242 2.60649 2.35048 -33.2674 -3.48556 -3.3549 -1.93727 -0.243438 -0.143181 0.445406 -3.52953 
243 3.08562 4.45957 -34.5485 -3.03365 -3.41531 -1.63604 -0.252109 -0.63925 0.396009 -3.53305 
244 4.78257 2.55833 -34.5471 -3.54105 -2.89194 -1.63933 -0.195231 0.159842 0.959924 -3.53303 
245 0.895498 4.23252 -33.2632 -3.71129 -4.41444 -2.22935 -0.169646 -0.873571 0.415826 -3.53398 
246 0.844639 4.24268 -30.6929 -3.74228 -4.53501 -2.45563 -0.179004 -0.882183 0.389176 -3.53377 
247 1.30461 6.36302 -31.9681 -3.24728 -4.27162 -2.08452 -0.236424 -1.31261 0.567591 -3.53348 
248 3.03286 4.49667 -31.977 -3.08438 -3.49032 -1.849 -0.270587 -0.65787 0.370298 -3.53305 
249 1.22807 6.37873 -29.401 -3.22386 -4.33632 -2.27513 -0.240322 -1.32201 0.520901 -3.53341 
250 4.75226 2.61573 -31.9754 -3.62136 -2.93878 -1.85244 -0.224144 0.135825 0.948435 -3.53303 
251 2.5785 2.38188 -30.6965 -3.56094 -3.43112 -2.1586 -0.267457 -0.159076 0.432029 -3.52952 
252 2.55017 2.41339 -28.1289 -3.59826 -3.47351 -2.35461 -0.29414 -0.179247 0.412027 -3.52955 
253 2.97959 4.53394 -29.4087 -3.0936 -3.52885 -2.03759 -0.293113 -0.679694 0.334396 -3.53309 
254 4.72162 2.67342 -29.407 -3.65965 -2.95096 -2.04158 -0.258328 0.102163 0.92835 -3.53307 
255 0.793402 4.25281 -28.1259 -3.73532 -4.61579 -2.65198 -0.185593 -0.889779 0.353967 -3.53365 
256 0.741814 4.26268 -25.562 -3.70516 -4.66647 -2.81484 -0.188807 -0.896105 0.314749 -3.53359 
257 1.15101 6.39412 -26.837 -3.17627 -4.3679 -2.42964 -0.240599 -1.32897 0.467718 -3.53341 
258 2.92567 4.57099 -26.8436 -3.07523 -3.54457 -2.19854 -0.316439 -0.701563 0.294284 -3.53315 
259 1.07347 6.40887 -24.2757 -3.11763 -4.37868 -2.5504 -0.237526 -1.33344 0.413408 -3.53346 
260 4.69034 2.73109 -26.8416 -3.66822 -2.94297 -2.20285 -0.294152 0.0637545 0.904599 -3.53312 
261 2.52136 2.44478 -25.5642 -3.60824 -3.49365 -2.52141 -0.320769 -0.200642 0.389362 -3.52959 
262 2.492 2.47592 -23.0022 -3.6004 -3.50102 -2.65885 -0.345411 -0.22099 0.366912 -3.52964 
263 2.87102 4.60752 -24.2811 -3.04089 -3.54773 -2.33193 -0.337905 -0.721221 0.254511 -3.5332 
264 4.65823 2.78853 -24.279 -3.65764 -2.92569 -2.336 -0.328879 0.0249433 0.880717 -3.53317 
265 0.689897 4.2721 -23.0007 -3.6633 -4.69649 -2.94536 -0.188646 -0.900899 0.275286 -3.53358 
266 0.637686 4.28094 -20.4415 -3.61747 -4.71337 -3.04729 -0.185335 -0.904113 0.237902 -3.53358 
267 0.9955 6.42273 -21.7167 -3.05675 -4.37785 -2.64236 -0.231314 -1.33578 0.361457 -3.53353 
268 2.81561 4.64335 -21.7209 -2.99897 -3.54513 -2.43983 -0.355833 -0.737577 0.217637 -3.53324 
269 0.917178 6.43557 -19.1594 -2.99896 -4.37152 -2.71111 -0.222177 -1.33656 0.313599 -3.5336 
270 4.62517 2.84561 -21.7188 -3.63575 -2.90618 -2.44314 -0.360883 -0.0114651 0.8587 -3.53322 
271 2.46205 2.50669 -20.4424 -3.5819 -3.50225 -2.76917 -0.366968 -0.239049 0.346251 -3.52969 
272 2.43152 2.53703 -17.8845 -3.55763 -3.50148 -2.85577 -0.384966 -0.254371 0.32801 -3.52972 
273 2.75947 4.67837 -19.1626 -2.95495 -3.54088 -2.52524 -0.36944 -0.750418 0.184697 -3.53328 
274 4.59111 2.90223 -19.1604 -3.60793 -2.88853 -2.52752 -0.389402 -0.0441126 0.839418 -3.53325 
275 0.585223 4.2891 -17.8841 -3.57242 -4.72243 -3.12523 -0.179147 -0.905933 0.203693 -3.5336 
276 0.532559 4.29655 -15.3281 -3.53088 -4.72718 -3.1837 -0.170374 -0.906696 0.172949 -3.53362 
277 0.838568 6.44731 -16.6035 -2.94716 -4.36339 -2.76175 -0.210393 -1.33641 0.270352 -3.53367 
278 2.70265 4.71254 -16.6058 -2.91221 -3.53727 -2.59145 -0.378588 -0.760064 0.155803 -3.5333 
279 0.759733 6.45792 -14.0486 -2.9026 -4.35555 -2.79851 -0.196325 -1.33585 0.231521 -3.53373 
280 4.55608 2.95834 -16.6035 -3.57767 -2.87475 -2.59272 -0.414217 -0.0726593 0.823048 -3.53328 
281 2.40044 2.56692 -15.328 -3.53084 -3.50108 -2.9223 -0.39933 -0.267013 0.312268 -3.52975 
282 2.36884 2.59634 -12.7725 -3.50358 -3.5022 -2.97219 -0.41023 -0.277315 0.298815 -3.52977 
283 2.64521 4.74584 -14.0502 -2.87263 -3.5354 -2.64167 -0.383532 -0.767084 0.130586 -3.53332 
284 4.52012 3.01394 -14.0478 -3.54716 -2.86558 -2.6421 -0.435424 -0.0973677 0.809387 -3.5333 
285 0.479745 4.30326 -12.7731 -3.49425 -4.72975 -3.22666 -0.159338 -0.906779 0.145491 -3.53364 
286 0.426824 4.30923 -10.2189 -3.46308 -4.73135 -3.25734 -0.146399 -0.906512 0.1209 -3.53366 
287 0.68073 6.46739 -11.4945 -2.8655 -4.349 -2.82468 -0.180387 -1.33522 0.196551 -3.53378 
288 2.58721 4.77827 -11.4955 -2.83716 -3.53568 -2.67873 -0.384731 -0.772113 0.108465 -3.53334 
289 0.601604 6.47574 -8.94102 -2.8355 -4.34413 -2.84268 -0.162991 -1.33475 0.16474 -3.53382 
290 4.48327 3.06899 -11.4931 -3.51769 -2.86105 -2.67854 -0.453286 -0.118798 0.798057 -3.53332 
291 2.33678 2.62528 -10.218 -3.47714 -3.50529 -3.00842 -0.417976 -0.285744 0.287309 -3.52979 
292 2.3043 2.65375 -7.66404 -3.45226 -3.51038 -3.03342 -0.422939 -0.292787 0.277362 -3.52981 
293 2.52872 4.80983 -8.94147 -2.80609 -3.53813 -2.70503 -0.382707 -0.775731 0.0887989 -3.53335 
294 4.44559 3.1235 -8.93902 -3.49001 -2.86081 -2.7044 -0.468137 -0.137614 0.788617 -3.53333 
295 0.373834 4.31445 -7.66518 -3.43737 -4.73262 -3.27821 -0.131928 -0.906132 0.0986508 -3.53368 
296 0.320806 4.31895 -5.11188 -3.41687 -4.73388 -3.29108 -0.116286 -0.905787 0.0782001 -3.53369 
297 0.522391 6.48298 -6.38789 -2.81198 -4.34105 -2.85424 -0.14451 -1.33451 0.135363 -3.53385 
298 2.46977 4.84054 -6.38793 -2.77939 -3.54262 -2.72247 -0.377954 -0.778418 0.0709692 -3.53336 
299 0.443124 6.48914 -3.83502 -2.79428 -4.3397 -2.86049 -0.125259 -1.33453 0.107738 -3.53387 
300 4.40712 3.17746 -6.38545 -3.46448 -2.86441 -2.72152 -0.48031 -0.154468 0.780629 -3.53334 
301 2.27143 2.68175 -5.11053 -3.42935 -3.51736 -3.04912 -0.425483 -0.298884 0.268594 -3.52982 
302 2.2382 2.70928 -2.55727 -3.40862 -3.52604 -3.05688 -0.42593 -0.304404 0.260655 -3.52983 
303 2.41042 4.87041 -3.83469 -2.75686 -3.54897 -2.73246 -0.37089 -0.780548 0.0544131 -3.53336 
304 4.36791 3.23087 -3.83219 -3.44128 -2.87144 -2.73124 -0.4901 -0.169947 0.773693 -3.53335 
305 0.267766 4.32274 -2.5588 -3.40123 -4.73526 -3.29716 -0.0997945 -0.905555 0.0590264 -3.5337 
306 0.363831 6.49422 -1.28227 -2.78186 -4.34005 -2.86215 -0.105486 -1.33482 0.0812395 -3.53388 
307 2.35069 4.89944 -1.28163 -2.73827 -3.55701 -2.73599 -0.36184 -0.7824 0.0386307 -3.53337 
308 4.32799 3.28373 -1.27912 -3.42048 -2.88154 -2.73449 -0.497732 -0.184555 0.767453 -3.53336 
309 2.43546 7.09158 -0.00519127 -2.21284 -3.35771 -2.40544 -0.322362 -1.18859 -0.174752 -3.53293 
310 0.433696 8.66913 -0.00583693 -2.24863 -4.01636 -2.49485 -0.106307 -1.72421 0.091045 -3.53363 