ITEM: TIMESTEP
0
ITEM: NUMBER OF ATOMS
37664
ITEM: BOX BOUNDS ff ff ff
-100 100
-100 100
-156.15 156.15
ITEM: ATOMS id x y z v_peratom_sxx v_peratom_syy v_peratom_szz v_peratom_sxy v_peratom_sxz v_peratom_syz c_atomPE 
1 -0.00794611 -0.00057852 -0.0154528 -5.19573 -5.17543 -9.53424 -0.036126 0.222663 -0.0812109 -3.51531 
2 -0.0093075 -0.000410742 2.53813 -5.18159 -5.16968 -9.51714 -0.0363437 0.222783 -0.0790971 -3.51539 
3 -0.0106002 -0.000248637 5.09197 -5.16321 -5.15965 -9.49058 -0.035612 0.220076 -0.0757734 -3.51551 
4 -0.0118143 -8.13112e-05 7.64617 -5.14117 -5.14576 -9.4529 -0.0345274 0.215513 -0.0720489 -3.51568 
5 -0.0129461 9.31927e-05 10.2009 -5.11443 -5.12807 -9.40698 -0.0327786 0.209292 -0.0675334 -3.51588 
6 -0.0139689 0.000318986 12.7563 -5.08049 -5.09999 -9.34404 -0.0320317 0.201822 -0.0624837 -3.51618 
7 -0.0148618 0.000593579 15.3127 -5.04143 -5.06916 -9.26463 -0.0294177 0.193966 -0.0561379 -3.51652 
8 -0.0155655 0.000925937 17.8701 -4.99 -5.0266 -9.16754 -0.027922 0.187213 -0.0483469 -3.51697 
9 -0.0160709 0.00133041 20.429 -4.93128 -4.97259 -9.04677 -0.0266069 0.181104 -0.0403974 -3.5175 
10 -0.016352 0.00178624 22.9895 -4.85225 -4.90131 -8.89251 -0.0245861 0.174584 -0.0335485 -3.51819 
11 -0.0164001 0.00225682 25.5523 -4.75115 -4.80657 -8.69823 -0.0234036 0.168922 -0.0271323 -3.51904 
12 -0.0162023 0.0027195 28.1177 -4.62307 -4.68327 -8.46247 -0.0215777 0.163638 -0.0212419 -3.52006 
13 -0.0157618 0.00313055 30.6861 -4.46058 -4.52637 -8.18813 -0.0219073 0.158563 -0.0189269 -3.52123 
14 -0.0150627 0.00342357 33.2576 -4.26158 -4.33061 -7.88028 -0.02029 0.153721 -0.0187339 -3.5225 
15 -0.0140795 0.00356383 35.8322 -4.03749 -4.10765 -7.55767 -0.0194465 0.150067 -0.0208041 -3.52373 
16 -0.012795 0.00354226 38.4096 -3.79933 -3.87002 -7.23284 -0.0192192 0.147475 -0.0250652 -3.52482 
17 -0.0111378 0.00331302 40.9895 -3.56242 -3.63158 -6.91686 -0.0169681 0.146919 -0.0301786 -3.52568 
18 -0.00900152 0.00282361 43.5715 -3.32391 -3.38978 -6.59711 -0.0154189 0.149219 -0.0367093 -3.5264 
19 -0.00623136 0.00203758 46.1559 -3.064 -3.12219 -6.23757 -0.0136617 0.156376 -0.0443289 -3.52712 
20 -0.00263279 0.000855395 48.743 -2.69538 -2.72794 -5.80682 -0.00659541 0.165997 -0.0537539 -3.528 
21 5.95933e-07 -4.11185e-08 51.3317 -1.92199 -1.9195 -4.90338 0.00038225 -0.00874186 0.00285596 -3.53201 
22 4.01304e-07 -1.42881e-06 53.9138 -0.852906 -0.852959 -8.91772 -7.45756e-06 -9.29454e-05 -6.78492e-05 -3.48168 
23 8.71386e-07 -1.98378e-06 56.3885 1.68524 1.68527 1.87556 -6.84818e-05 8.01451e-05 8.06654e-06 -2.55581 
24 -1.23087e-07 -1.12453e-06 -53.8876 -2.60504 -2.60512 -6.54915 -2.77671e-05 3.03848e-05 -6.98964e-05 -3.40184 
25 1.02659e-07 -1.55837e-06 -51.3239 -2.0811 -2.08541 -5.62704 -0.000559311 -0.01161 0.00473819 -3.5288 
26 0.00316891 -0.00127661 -48.7477 -2.84429 -2.79839 -6.32067 0.00311425 0.198305 -0.0799846 -3.52577 
27 0.00707296 -0.00292839 -46.1677 -3.18958 -3.12098 -6.53699 0.00496085 0.171949 -0.0744769 -3.52618 
28 0.00932799 -0.00416331 -43.587 -3.46769 -3.39038 -6.79121 0.00768133 0.159283 -0.0659649 -3.52576 
29 0.0105033 -0.00506844 -41.0071 -3.71286 -3.63511 -7.06802 0.00837955 0.156161 -0.0561062 -3.52519 
30 0.0109897 -0.00570449 -38.4288 -3.95381 -3.87405 -7.36458 0.0104795 0.156503 -0.0466228 -3.52439 
31 0.0110441 -0.00607736 -35.8526 -4.19222 -4.10939 -7.67295 0.0104208 0.157297 -0.0393401 -3.52337 
32 0.0107825 -0.0062002 -33.2789 -4.41557 -4.33329 -7.98737 0.0111118 0.157275 -0.0337601 -3.5222 
33 0.010241 -0.00607194 -30.7082 -4.62006 -4.53096 -8.29686 0.00889561 0.154372 -0.0314919 -3.52094 
34 0.00943217 -0.00570666 -28.1405 -4.78778 -4.69814 -8.57513 0.00727407 0.151217 -0.0327428 -3.51974 
35 0.00835293 -0.00516803 -25.5758 -4.9238 -4.83045 -8.81786 0.00278695 0.148905 -0.0368391 -3.51867 
36 0.00702381 -0.00453335 -23.0138 -5.02513 -4.93364 -9.02124 -0.00352209 0.148329 -0.0441874 -3.51775 
37 0.00546937 -0.00386727 -20.4541 -5.09776 -5.00907 -9.17783 -0.010068 0.152419 -0.0530809 -3.51703 
38 0.0037607 -0.00322533 -17.8963 -5.14656 -5.06443 -9.29805 -0.0151347 0.161843 -0.0627799 -3.51647 
39 0.00196563 -0.00263356 -15.3398 -5.18129 -5.10616 -9.39035 -0.0214517 0.172559 -0.0705955 -3.51603 
40 0.000146089 -0.0021101 -12.7845 -5.20209 -5.13622 -9.45785 -0.0265193 0.18356 -0.076336 -3.51572 
41 -0.00163513 -0.00167311 -10.2301 -5.2119 -5.15577 -9.50096 -0.030186 0.195616 -0.0807528 -3.5155 
42 -0.00334872 -0.00131769 -7.67607 -5.21538 -5.16816 -9.5261 -0.0324994 0.20573 -0.0831694 -3.51537 
43 -0.00497453 -0.00103007 -5.12241 -5.2133 -5.1753 -9.54004 -0.034468 0.214333 -0.083572 -3.5153 
44 -0.00650543 -0.000781807 -2.56893 -5.20679 -5.17743 -9.54233 -0.0355563 0.219932 -0.0828046 -3.51528 
45 0.0867394 2.15948 1.2608 -4.07898 -5.1373 -3.82997 -0.087804 -0.374469 0.00241318 -3.52912 
46 0.0592822 2.16055 3.81441 -4.06783 -5.13611 -3.814 -0.0724613 -0.373982 -0.00691426 -3.52913 
47 0.0319106 2.16127 6.36833 -4.05888 -5.13378 -3.7904 -0.0567309 -0.374492 -0.0161563 -3.52915 
48 0.00461478 2.16168 8.92269 -4.05184 -5.12753 -3.75999 -0.0408504 -0.375663 -0.026167 -3.52918 
49 -0.022579 2.16175 11.4776 -4.0446 -5.12119 -3.71663 -0.0248436 -0.376855 -0.0354951 -3.52922 
50 -0.0496338 2.16155 14.0334 -4.0425 -5.10726 -3.66056 -0.00869699 -0.37813 -0.0462733 -3.52927 
51 -0.0765176 2.16106 16.5901 -4.03768 -5.09122 -3.59345 0.00611442 -0.379701 -0.0589823 -3.52933 
52 -0.103162 2.16029 19.1481 -4.03693 -5.06662 -3.50759 0.0206373 -0.380646 -0.0721529 -3.5294 
53 -0.129541 2.15926 21.7076 -4.03522 -5.03485 -3.39889 0.0327022 -0.381483 -0.0871728 -3.5295 
54 -0.155658 2.15794 24.2691 -4.0337 -4.98793 -3.26265 0.0432033 -0.38245 -0.105628 -3.5296 
55 -0.181473 2.15635 26.8329 -4.02035 -4.92089 -3.09427 0.0510058 -0.382385 -0.126994 -3.52977 
56 -0.206961 2.15453 29.3995 -3.99615 -4.8243 -2.8941 0.0555951 -0.381403 -0.148616 -3.52997 
57 -0.2321 2.15251 31.9692 -3.94157 -4.69583 -2.66164 0.0583852 -0.379302 -0.168501 -3.53023 
58 -0.256843 2.15034 34.5421 -3.84554 -4.52313 -2.40642 0.0593281 -0.376069 -0.182076 -3.53059 
59 -0.28113 2.14804 37.118 -3.7075 -4.31756 -2.14103 0.0598007 -0.370936 -0.188015 -3.53099 
60 -0.304851 2.14554 39.6967 -3.52871 -4.08785 -1.87484 0.0613108 -0.363155 -0.19463 -3.5314 
61 -0.327908 2.14269 42.2776 -3.32659 -3.85122 -1.6134 0.065663 -0.352717 -0.206651 -3.53175 
62 -0.350208 2.13939 44.8605 -3.11196 -3.59615 -1.3407 0.0693015 -0.338787 -0.229794 -3.53202 
63 -0.371636 2.13584 47.4455 -2.85467 -3.27974 -1.05024 0.0708388 -0.318974 -0.257374 -3.53228 
64 -0.392512 2.13371 50.032 -2.39248 -2.80029 -0.453403 0.0351032 -0.373838 -0.223078 -3.53329 
65 -0.418483 2.1304 52.6263 -1.76601 -2.0044 -0.560514 0.0453548 -0.308716 -0.73041 -3.52455 
66 -0.44812 2.14653 55.1778 6.97735 7.73868 2.43045 0.0331974 -0.597249 1.76985 -3.02528 
67 0.649859 2.05055 -55.162 1.38992 0.842998 -0.676739 -0.188201 -0.0991713 1.20793 -3.26035 
68 0.633027 2.08274 -52.6122 -1.11379 -2.21959 -0.458395 -0.374758 -0.4889 -0.161697 -3.53571 
69 0.607028 2.08678 -50.0319 -2.0223 -2.62023 -0.950545 -0.133166 -0.389707 0.0716173 -3.53406 
70 0.586375 2.08734 -47.4549 -2.76469 -3.13169 -1.35193 -0.128904 -0.321347 0.14481 -3.53284 
71 0.565055 2.09006 -44.8745 -3.20737 -3.49496 -1.5066 -0.103731 -0.332201 0.191385 -3.53215 
72 0.542515 2.09374 -42.294 -3.51546 -3.77229 -1.7276 -0.0890692 -0.344519 0.207422 -3.53169 
73 0.518956 2.0978 -39.7147 -3.7636 -4.02332 -1.97118 -0.0849806 -0.356135 0.217562 -3.53123 
74 0.494541 2.10217 -37.1373 -3.96997 -4.25272 -2.22671 -0.0867042 -0.367404 0.227478 -3.53078 
75 0.469427 2.10683 -34.5623 -4.12949 -4.45841 -2.48747 -0.0945835 -0.376674 0.230947 -3.53035 
76 0.443715 2.11181 -31.9904 -4.24092 -4.63339 -2.74261 -0.108153 -0.384822 0.22578 -3.52997 
77 0.417473 2.117 -29.4216 -4.30294 -4.77198 -2.97573 -0.12365 -0.391686 0.210963 -3.52968 
78 0.390763 2.12231 -26.856 -4.32584 -4.87149 -3.17975 -0.138732 -0.397228 0.188787 -3.52949 
79 0.363645 2.12753 -24.2931 -4.31987 -4.94771 -3.35365 -0.151607 -0.400281 0.162943 -3.52934 
80 0.336213 2.1325 -21.7328 -4.29749 -5.00096 -3.49266 -0.160043 -0.39932 0.137701 -3.52926 
81 0.308557 2.13714 -19.1745 -4.26473 -5.0396 -3.59818 -0.164786 -0.396614 0.113417 -3.52921 
82 0.280775 2.14137 -16.6177 -4.23171 -5.06853 -3.67851 -0.164024 -0.393505 0.0916393 -3.52917 
83 0.252926 2.14518 -14.062 -4.19991 -5.09016 -3.74012 -0.159459 -0.389622 0.0726868 -3.52915 
84 0.225069 2.14858 -11.5074 -4.17308 -5.10737 -3.78469 -0.151475 -0.385113 0.0578244 -3.52912 
85 0.197259 2.15154 -8.95323 -4.14614 -5.11937 -3.81196 -0.141986 -0.381738 0.0439442 -3.52911 
86 0.169514 2.15409 -6.39952 -4.12505 -5.12773 -3.83006 -0.129727 -0.378698 0.0320352 -3.5291 
87 0.14186 2.15625 -3.84604 -4.10699 -5.13359 -3.83796 -0.11674 -0.376225 0.0216507 -3.5291 
88 0.114272 2.15805 -1.29264 -4.09179 -5.13634 -3.83767 -0.102578 -0.375068 0.0120346 -3.52911 
89 0.209075 4.3261 -0.0156498 -3.41579 -4.75081 -3.29848 -0.112534 -0.870758 0.051689 -3.53373 
90 0.277766 6.49823 1.26145 -2.79481 -4.36366 -2.86304 -0.111783 -1.3112 0.0675377 -3.5339 
91 2.19922 2.73569 -0.0119175 -3.41582 -3.52948 -3.07627 -0.446733 -0.272088 0.269794 -3.5298 
92 2.16465 2.76229 2.54153 -3.39585 -3.54412 -3.06593 -0.442014 -0.27756 0.262772 -3.5298 
93 2.28407 4.92677 1.26386 -2.74268 -3.56693 -2.7496 -0.370125 -0.756532 0.0438675 -3.53336 
94 4.28111 3.33457 1.26825 -3.42808 -2.89358 -2.74564 -0.520331 -0.175599 0.767575 -3.53333 
95 0.155385 4.32842 2.53768 -3.4074 -4.753 -3.28948 -0.0930992 -0.870876 0.0334602 -3.53374 
96 0.101778 4.33002 5.09122 -3.40249 -4.75546 -3.27406 -0.0730205 -0.871099 0.0147653 -3.53374 
97 0.197854 6.50108 3.81459 -2.7904 -4.36779 -2.85361 -0.0894208 -1.31203 0.0408958 -3.5339 
98 2.22303 4.95409 3.81727 -2.72925 -3.5801 -2.73738 -0.355849 -0.75892 0.0280801 -3.53337 
99 0.11804 6.50286 6.36797 -2.79059 -4.37293 -2.8394 -0.0671083 -1.31303 0.0140063 -3.53389 
100 4.23921 3.38633 3.82164 -3.40821 -2.91173 -2.73395 -0.522396 -0.190049 0.761522 -3.53334 
101 2.12982 2.78842 5.09519 -3.37748 -3.5597 -3.0487 -0.435105 -0.283476 0.255397 -3.52981 
102 2.09474 2.81407 7.64918 -3.36081 -3.57671 -3.02508 -0.426434 -0.290637 0.247776 -3.52981 
103 2.16173 4.98055 6.37093 -2.71882 -3.59462 -2.71923 -0.339951 -0.761782 0.0117512 -3.53337 
104 4.19672 3.43749 6.37526 -3.39009 -2.93264 -2.71611 -0.522197 -0.204755 0.755321 -3.53335 
105 0.0482582 4.33094 7.64512 -3.40101 -4.75735 -3.25226 -0.0530607 -0.872088 -0.00427781 -3.53374 
106 -0.00516994 4.33119 10.1995 -3.40391 -4.75957 -3.22433 -0.0322366 -0.873581 -0.0244694 -3.53373 
107 0.0383265 6.5036 8.92173 -2.7951 -4.3796 -2.81975 -0.0438453 -1.31455 -0.0140536 -3.53387 
108 2.10016 5.00618 8.92498 -2.71213 -3.61021 -2.69497 -0.322226 -0.76588 -0.005559 -3.53337 
109 -0.0412501 6.5033 11.476 -2.8051 -4.38719 -2.79496 -0.0210018 -1.31719 -0.0438198 -3.53384 
110 4.15362 3.48806 8.92925 -3.37391 -2.95652 -2.69157 -0.519788 -0.220845 0.749406 -3.53335 
111 2.05938 2.83926 10.2036 -3.34711 -3.59369 -2.9922 -0.415929 -0.298445 0.238824 -3.5298 
112 2.02381 2.86395 12.7588 -3.33375 -3.61192 -2.95054 -0.402625 -0.306516 0.230031 -3.52979 
113 2.03836 5.03094 11.4795 -2.70922 -3.62767 -2.66066 -0.302162 -0.77033 -0.0249683 -3.53336 
114 4.10991 3.53803 11.4838 -3.36035 -2.97996 -2.65895 -0.514476 -0.237746 0.741717 -3.53336 
115 -0.0584432 4.33076 12.7545 -3.40834 -4.75903 -3.18496 -0.01153 -0.874548 -0.0453878 -3.53374 
116 -0.111541 4.32969 15.3104 -3.42135 -4.75855 -3.13815 0.00858835 -0.876472 -0.0693274 -3.53373 
117 -0.120635 6.50195 14.0309 -2.81985 -4.39603 -2.76159 0.00255134 -1.32008 -0.0755041 -3.53381 
118 1.97638 5.05483 14.0349 -2.70903 -3.64487 -2.61983 -0.280197 -0.775618 -0.046158 -3.53336 
119 -0.199794 6.4996 16.5867 -2.83816 -4.4052 -2.71768 0.0254271 -1.32199 -0.110591 -3.53378 
120 4.06567 3.58735 14.0389 -3.3493 -3.00837 -2.61718 -0.506159 -0.255896 0.732853 -3.53336 
121 1.98805 2.88818 15.3147 -3.32319 -3.63111 -2.89893 -0.387581 -0.316581 0.219803 -3.52978 
122 1.95212 2.9119 17.8717 -3.31574 -3.64627 -2.83041 -0.370656 -0.326991 0.206517 -3.52977 
123 1.91423 5.07784 16.591 -2.71448 -3.66191 -2.56925 -0.256463 -0.781342 -0.0690983 -3.53334 
124 4.02088 3.63601 16.595 -3.342 -3.03875 -2.56551 -0.495575 -0.275773 0.723213 -3.53335 
125 -0.164413 4.32798 17.8672 -3.43552 -4.75573 -3.0766 0.0281671 -0.878171 -0.0950976 -3.53373 
126 -0.216975 4.32562 20.4255 -3.45604 -4.7513 -2.99955 0.0469185 -0.879035 -0.124741 -3.53372 
127 -0.278652 6.49619 19.1435 -2.86681 -4.41501 -2.66814 0.047165 -1.32467 -0.149996 -3.53371 
128 1.85198 5.09991 19.1483 -2.72356 -3.67903 -2.50047 -0.230508 -0.78834 -0.0958987 -3.53334 
129 -0.35714 6.49175 21.7016 -2.89963 -4.42367 -2.60021 0.0680286 -1.32698 -0.192872 -3.53366 
130 3.9756 3.68395 19.1522 -3.33588 -3.07047 -2.49799 -0.480712 -0.298532 0.711174 -3.53335 
131 1.9161 2.93508 20.4301 -3.30833 -3.66259 -2.74589 -0.350229 -0.338454 0.192287 -3.52975 
132 1.87998 2.95772 22.9903 -3.30372 -3.67403 -2.64403 -0.32811 -0.352604 0.175189 -3.52971 
133 1.78969 5.12102 21.7072 -2.74054 -3.69363 -2.41926 -0.203431 -0.798068 -0.127261 -3.53331 
134 3.92987 3.73113 21.7109 -3.33294 -3.10439 -2.41506 -0.461786 -0.323827 0.695557 -3.53333 
135 -0.269222 4.32263 22.9853 -3.48117 -4.73758 -2.90371 0.0632442 -0.879534 -0.158337 -3.53373 
136 -0.321129 4.31902 25.5472 -3.50685 -4.71397 -2.78246 0.07808 -0.880022 -0.195696 -3.53374 
137 -0.435221 6.48632 24.2614 -2.93917 -4.42798 -2.51102 0.08745 -1.32862 -0.242609 -3.5336 
138 1.72736 5.14117 24.2677 -2.75911 -3.70526 -2.31852 -0.173315 -0.810108 -0.163438 -3.53328 
139 -0.512844 6.47992 26.8233 -2.98121 -4.42227 -2.4001 0.105352 -1.32914 -0.295008 -3.53354 
140 3.88369 3.77752 24.2712 -3.33317 -3.13509 -2.3156 -0.43982 -0.352537 0.674999 -3.5333 
141 1.8438 2.97979 25.5524 -3.29548 -3.67668 -2.51437 -0.303113 -0.369095 0.153429 -3.52967 
142 1.80763 3.00131 28.1171 -3.28021 -3.66453 -2.35678 -0.276116 -0.386356 0.129872 -3.52963 
143 1.66504 5.16034 26.8304 -2.77974 -3.70543 -2.19067 -0.142357 -0.822897 -0.203077 -3.53325 
144 3.83714 3.8231 26.8337 -3.32889 -3.16185 -2.1896 -0.413183 -0.384672 0.651079 -3.53326 
145 -0.372629 4.31486 28.1114 -3.52974 -4.67334 -2.62835 0.0903636 -0.878268 -0.234515 -3.53378 
146 -0.423693 4.3103 30.6787 -3.53807 -4.60357 -2.44196 0.0990061 -0.875095 -0.273951 -3.53388 
147 -0.589936 6.47275 29.3876 -3.02214 -4.39837 -2.25667 0.120654 -1.32784 -0.349465 -3.53352 
148 1.60286 5.17866 29.3957 -2.79432 -3.6925 -2.03596 -0.110221 -0.836981 -0.24489 -3.5332 
149 -0.666455 6.46504 31.955 -3.04945 -4.34913 -2.08055 0.132771 -1.32426 -0.402754 -3.53354 
150 3.79036 3.8679 29.3988 -3.3201 -3.17811 -2.03573 -0.384642 -0.419238 0.624045 -3.53321 
151 1.77158 3.02237 30.6847 -3.24834 -3.63079 -2.17174 -0.248093 -0.402571 0.106149 -3.52958 
152 1.73581 3.04308 33.2554 -3.19012 -3.5622 -1.9557 -0.222877 -0.414747 0.0857002 -3.52957 
153 1.5409 5.19632 31.9641 -2.7982 -3.6553 -1.85544 -0.0815435 -0.851079 -0.284618 -3.53315 
154 3.74355 3.91202 31.9669 -3.29286 -3.17162 -1.85782 -0.354985 -0.451128 0.595538 -3.53316 
155 -0.474285 4.30547 33.2491 -3.51868 -4.4969 -2.22623 0.104368 -0.870733 -0.306825 -3.53404 
156 -0.524316 4.30058 35.8229 -3.45512 -4.34076 -1.98334 0.106416 -0.86482 -0.329421 -3.53431 
157 -0.742328 6.45712 34.5257 -3.0463 -4.25027 -1.8664 0.140869 -1.31857 -0.444698 -3.53369 
158 1.47939 5.21362 34.5356 -2.77176 -3.58092 -1.65068 -0.0572864 -0.85988 -0.316136 -3.53313 
159 -0.817468 6.44936 37.1 -2.99273 -4.09497 -1.62677 0.145747 -1.30835 -0.472493 -3.53396 
160 3.69704 3.95568 34.5381 -3.23614 -3.13246 -1.65317 -0.328384 -0.476313 0.569614 -3.53313 
161 1.70053 3.06361 35.8295 -3.0879 -3.45076 -1.72087 -0.200656 -0.419194 0.0728779 -3.52964 
162 1.66591 3.08407 38.4066 -2.93893 -3.28954 -1.47509 -0.185063 -0.414999 0.0681501 -3.52981 
163 1.41859 5.23095 37.1104 -2.69538 -3.45678 -1.42039 -0.0400796 -0.859709 -0.332384 -3.5332 
164 3.65121 3.99913 37.1128 -3.13107 -3.0397 -1.42488 -0.308229 -0.488954 0.552491 -3.5332 
165 -0.573677 4.29567 38.3999 -3.33658 -4.13861 -1.73236 0.108336 -0.854343 -0.343349 -3.53466 
166 -0.622215 4.29054 40.9793 -3.17403 -3.90801 -1.48762 0.10883 -0.839134 -0.358108 -3.535 
167 -0.891727 6.44182 39.6775 -2.87878 -3.8805 -1.38211 0.145671 -1.29201 -0.489018 -3.53432 
168 1.35873 5.24846 39.6884 -2.56383 -3.28114 -1.18411 -0.0321435 -0.847735 -0.336213 -3.53338 
169 -0.964942 6.43421 42.2573 -2.71253 -3.62556 -1.15004 0.144338 -1.27031 -0.505534 -3.53468 
170 3.60634 4.0425 39.6904 -2.96833 -2.89511 -1.19209 -0.29429 -0.489784 0.544495 -3.53337 
171 1.63203 3.10434 40.9861 -2.7531 -3.09433 -1.22301 -0.173883 -0.408712 0.063165 -3.53004 
172 1.59886 3.12428 43.5678 -2.53877 -2.86486 -0.966774 -0.165334 -0.404844 0.0500394 -3.53033 
173 1.29995 5.266 42.2684 -2.38347 -3.0587 -0.950463 -0.0310341 -0.830699 -0.343191 -3.53363 
174 3.5624 4.0857 42.2702 -2.75572 -2.70187 -0.958686 -0.285093 -0.48934 0.533473 -3.53362 
175 -0.669852 4.285 43.5607 -2.97822 -3.65793 -1.24243 0.111995 -0.820849 -0.380809 -3.53529 
176 -0.716608 4.27901 46.1436 -2.76319 -3.38158 -0.977735 0.113668 -0.798674 -0.419893 -3.53555 
177 -1.03712 6.42633 44.8384 -2.50439 -3.33518 -0.934621 0.142548 -1.24624 -0.527334 -3.53502 
178 1.24214 5.28344 44.8501 -2.15801 -2.79774 -0.717041 -0.033433 -0.816926 -0.364133 -3.53395 
179 -1.10854 6.4185 47.4198 -2.25443 -3.0013 -0.743335 0.14048 -1.22148 -0.548085 -3.53537 
180 3.51927 4.12869 44.8516 -2.50253 -2.47116 -0.735273 -0.27973 -0.495156 0.511006 -3.53392 
181 1.56633 3.14388 46.151 -2.30549 -2.60901 -0.691127 -0.159996 -0.409785 0.0210027 -3.53059 
182 1.53457 3.16358 48.7362 -2.05114 -2.34341 -0.320983 -0.172833 -0.422363 -0.0151213 -3.53024 
183 1.18498 5.3008 47.4326 -1.90336 -2.49278 -0.484353 -0.0540029 -0.818784 -0.409701 -3.5342 
184 3.47682 4.17151 47.4335 -2.20537 -2.21083 -0.527349 -0.279343 -0.516539 0.466608 -3.53412 
185 -0.762615 4.2736 48.728 -2.56079 -3.04808 -0.627198 0.103812 -0.76752 -0.434046 -3.5353 
186 -0.811621 4.26877 51.3169 -1.98885 -2.34868 0.324717 0.083779 -0.847729 -0.652732 -3.53801 
187 -1.17889 6.41384 50.0002 -2.02732 -2.54114 -0.309161 0.0619996 -1.23569 -0.627127 -3.5358 
188 1.12775 5.31799 50.0156 -1.55827 -2.06535 -0.000493749 -0.101796 -0.91531 -0.583526 -3.53491 
189 -1.25707 6.40546 52.5877 -1.61269 -2.48653 0.64358 0.176406 -1.31723 -0.612214 -3.5328 
190 3.43505 4.21346 50.0156 -1.75082 -1.84377 -0.0289249 -0.303729 -0.64284 0.319655 -3.53495 
191 1.50027 3.18358 51.3264 -1.43155 -1.6999 0.662952 -0.172695 -0.554445 -0.131836 -3.53268 
192 1.46587 3.20964 53.9052 0.0265319 0.953779 -0.796461 0.566197 -0.561243 0.1386 -3.37565 
193 1.06597 5.33731 52.6041 -1.24941 -1.89883 0.440931 -0.237152 -0.801095 -0.410578 -3.52778 
194 3.38747 4.26008 52.6041 -1.4101 -1.71438 0.389245 -0.390369 -0.639088 0.58782 -3.52745 
195 -0.866323 4.2769 53.8949 -0.0505082 -0.206497 -1.17997 0.0794939 -1.26172 1.02744 -3.38132 
196 1.3298 4.1174 -56.3442 5.06952 2.90521 1.60227 -1.25496 -0.273858 0.110316 -2.79034 
197 -1.33605 6.40133 55.1665 4.17919 2.79796 1.2897 0.319785 -1.52335 0.198386 -3.26107 
198 1.00488 5.36129 55.1754 5.64313 6.63221 2.70829 0.370334 -0.636334 -0.0319864 -3.15047 
199 1.98371 6.26223 -55.1334 6.94022 9.11548 2.92984 0.134095 -0.847967 -0.525874 -3.02309 
200 3.34328 4.30996 55.1754 5.5308 7.35872 2.86962 0.118529 -0.278263 0.56301 -3.15116 
201 2.87095 2.09325 -56.362 4.04257 6.00654 1.88151 -3.16461 0.252875 0.342002 -2.79939 
202 2.84551 2.1252 -53.8874 0.165473 0.763568 -3.0266 -0.981906 -0.732756 -0.162294 -3.51266 
203 3.53831 4.21674 -55.1525 6.03172 6.27399 1.75896 0.302415 -1.21934 -0.0444541 -3.14331 
204 5.07312 2.13635 -55.1525 6.04998 7.03896 2.00278 0.445999 -0.528065 0.0806599 -3.14511 
205 1.29262 4.16451 -53.8815 0.861099 -0.347498 -3.67579 -0.408518 -0.573937 0.838977 -3.51412 
206 1.24176 4.17585 -51.3147 -1.29037 -1.91488 -0.40231 -0.214964 -0.886879 0.219709 -3.53915 
207 1.90264 6.26187 -52.5941 -0.919212 -1.45692 -0.572746 -0.18423 -1.16822 0.820015 -3.52795 
208 3.4607 4.22944 -52.6036 -0.750853 -0.926704 0.093719 -0.677604 -0.496587 0.190986 -3.53022 
209 1.82403 6.27282 -50.0101 -1.65345 -2.36749 -0.313137 -0.174898 -1.23825 0.434724 -3.53686 
210 5.01221 2.17771 -52.6036 -1.34333 -0.34978 0.0529031 -0.502729 0.0188029 0.991299 -3.52955 
211 2.80522 2.14769 -51.32 -1.10611 -0.950548 -0.146975 -0.279489 -0.339929 0.26412 -3.53422 
212 2.77436 2.17407 -48.7415 -2.04817 -1.8755 -0.643895 -0.299219 -0.122846 0.359133 -3.53081 
213 3.40036 4.25787 -50.02 -1.46703 -1.68535 -0.206363 -0.418416 -0.662515 0.301391 -3.53488 
214 4.971 2.23184 -50.02 -1.8852 -1.2955 -0.171597 -0.300727 0.0637913 0.840505 -3.53493 
215 1.1921 4.18022 -48.7363 -2.26718 -2.80837 -0.883219 -0.190384 -0.764898 0.280226 -3.5364 
216 1.14634 4.18568 -46.1561 -2.75907 -3.22901 -1.08687 -0.171876 -0.775675 0.399275 -3.53606 
217 1.75321 6.27861 -47.4317 -2.19279 -2.86165 -0.775321 -0.225271 -1.1917 0.548407 -3.53593 
218 3.34907 4.28691 -47.4426 -1.96442 -2.21919 -0.668049 -0.304281 -0.567626 0.357632 -3.53422 
219 1.68221 6.29006 -44.8518 -2.58739 -3.21447 -0.960973 -0.214451 -1.20409 0.606185 -3.53537 
220 4.93846 2.28347 -47.4416 -2.38961 -1.79725 -0.63151 -0.21121 0.173483 0.868585 -3.53423 
221 2.74795 2.2005 -46.1614 -2.48004 -2.27871 -0.844021 -0.231349 -0.090457 0.404848 -3.53076 
222 2.72206 2.22843 -43.5806 -2.81224 -2.58833 -1.05828 -0.212896 -0.0937415 0.422422 -3.53036 
223 3.29849 4.31855 -44.8629 -2.33879 -2.57286 -0.816396 -0.26457 -0.571269 0.388651 -3.53394 
224 4.90825 2.33577 -44.8616 -2.76596 -2.14221 -0.804804 -0.173775 0.194205 0.897807 -3.5339 
225 1.09983 4.19362 -43.5755 -3.11463 -3.54094 -1.31128 -0.156493 -0.793441 0.426144 -3.53552 
226 1.05224 4.20238 -40.9956 -3.38656 -3.80797 -1.54924 -0.152036 -0.814627 0.435279 -3.53506 
227 1.61046 6.30318 -42.2719 -2.88587 -3.51303 -1.18461 -0.215073 -1.22994 0.623758 -3.53486 
228 3.24786 4.35175 -42.2828 -2.62893 -2.86011 -1.02079 -0.2478 -0.585136 0.40361 -3.53359 
229 1.53743 6.31709 -39.6932 -3.10401 -3.77496 -1.42336 -0.224138 -1.2564 0.630171 -3.53439 
230 4.87866 2.38914 -42.2813 -3.06766 -2.41428 -1.01212 -0.161997 0.194461 0.920843 -3.53355 
231 2.69572 2.25725 -41.0005 -3.07923 -2.83873 -1.28844 -0.20838 -0.100398 0.436311 -3.53004 
232 2.66874 2.28687 -38.4219 -3.29852 -3.04692 -1.52935 -0.212634 -0.105541 0.449036 -3.52977 
233 3.19665 4.38614 -39.7038 -2.85542 -3.08964 -1.2457 -0.242601 -0.598003 0.413202 -3.53331 
234 4.84888 2.44365 -39.7022 -3.3131 -2.62184 -1.23861 -0.162344 0.192621 0.942855 -3.53327 
235 1.00349 4.21158 -38.4174 -3.59446 -4.04638 -1.79589 -0.156221 -0.833567 0.441111 -3.53462 
236 0.953649 4.2212 -35.8415 -3.73893 -4.25037 -2.04383 -0.1689 -0.850246 0.438989 -3.53423 
237 1.46304 6.33166 -37.1168 -3.24866 -3.99141 -1.6731 -0.238915 -1.27808 0.62769 -3.53397 
238 3.14474 4.42164 -37.1268 -3.0219 -3.26602 -1.48063 -0.248377 -0.61047 0.416778 -3.5331 
239 1.38741 6.34691 -34.5435 -3.32145 -4.15578 -1.91561 -0.255054 -1.29655 0.611803 -3.53364 
240 4.8188 2.4993 -37.125 -3.5066 -2.77106 -1.46871 -0.174358 0.188192 0.958391 -3.53307 
241 2.64119 2.31724 -35.8457 -3.46913 -3.20899 -1.76887 -0.225282 -0.111503 0.456767 -3.52958 
242 2.61316 2.34829 -33.2722 -3.59253 -3.32066 -2.00325 -0.246579 -0.122803 0.454408 -3.52948 
243 3.09215 4.45813 -34.5527 -3.12508 -3.38402 -1.7081 -0.263322 -0.627958 0.405625 -3.53301 
244 4.78843 2.55598 -34.5506 -3.63747 -2.86072 -1.69405 -0.196887 0.173449 0.959892 -3.53298 
245 0.902875 4.23127 -33.2687 -3.8186 -4.41099 -2.28739 -0.184589 -0.863998 0.426751 -3.53393 
246 0.851303 4.24164 -30.6992 -3.84384 -4.52855 -2.51182 -0.20078 -0.873392 0.40191 -3.53372 
247 1.31072 6.36272 -31.9736 -3.32744 -4.26408 -2.13496 -0.269703 -1.31 0.578218 -3.53347 
248 3.03884 4.49531 -31.9818 -3.17196 -3.45425 -1.9186 -0.286562 -0.649601 0.379968 -3.533 
249 1.23315 6.37866 -29.4074 -3.29034 -4.32659 -2.3217 -0.278953 -1.31777 0.533043 -3.53341 
250 4.75768 2.61339 -31.9794 -3.71632 -2.9043 -1.90603 -0.229481 0.147052 0.949098 -3.53296 
251 2.58461 2.37982 -30.702 -3.66508 -3.39391 -2.22378 -0.27551 -0.139925 0.44236 -3.52946 
252 2.55549 2.41155 -28.1349 -3.69692 -3.43112 -2.41899 -0.307085 -0.161284 0.422075 -3.52949 
253 2.98474 4.53274 -29.4141 -3.1735 -3.48883 -2.10673 -0.313926 -0.672028 0.344267 -3.53305 
254 4.72634 2.67118 -29.4115 -3.75093 -2.91449 -2.09333 -0.268073 0.111646 0.929211 -3.533 
255 0.799076 4.25209 -28.1331 -3.82524 -4.60491 -2.70141 -0.214783 -0.880028 0.367009 -3.53363 
256 0.746289 4.26231 -25.5699 -3.78212 -4.65459 -2.8576 -0.2248 -0.883897 0.32647 -3.53359 
257 1.15487 6.39432 -26.8442 -3.22816 -4.358 -2.46942 -0.283974 -1.32115 0.479398 -3.53344 
258 2.92977 4.56997 -26.8495 -3.14497 -3.50593 -2.26819 -0.342317 -0.693333 0.30468 -3.5331 
259 1.07604 6.40928 -24.2836 -3.15537 -4.36968 -2.58643 -0.283164 -1.32155 0.424063 -3.5335 
260 4.69419 2.72899 -26.8465 -3.75273 -2.90634 -2.25461 -0.308443 0.0718633 0.905091 -3.53305 
261 2.52569 2.44321 -25.5708 -3.69958 -3.45248 -2.58659 -0.339997 -0.1838 0.397967 -3.52952 
262 2.49524 2.47458 -23.0093 -3.68209 -3.45943 -2.72028 -0.369474 -0.20318 0.375152 -3.52957 
263 2.87394 4.60666 -24.2876 -3.09815 -3.51022 -2.39759 -0.366764 -0.710766 0.26545 -3.53316 
264 4.66106 2.78657 -24.2843 -3.73396 -2.89013 -2.38676 -0.347 0.0341666 0.881426 -3.5331 
265 0.693082 4.27205 -23.0093 -3.72383 -4.68661 -2.98187 -0.229539 -0.884381 0.284933 -3.5336 
266 0.639586 4.28111 -20.4507 -3.66574 -4.70451 -3.0786 -0.2281 -0.883017 0.246271 -3.53362 
267 0.99682 6.42328 -21.7252 -3.0844 -4.37209 -2.67276 -0.276757 -1.32002 0.371531 -3.53357 
268 2.81734 4.64261 -21.7279 -3.04499 -3.51082 -2.49956 -0.386213 -0.724014 0.228963 -3.53321 
269 0.91732 6.43617 -19.1683 -3.01873 -4.36937 -2.7349 -0.266117 -1.31807 0.323316 -3.53366 
270 4.62692 2.84376 -21.7244 -3.70324 -2.87109 -2.48736 -0.381752 -0.00146861 0.859268 -3.53316 
271 2.46413 2.50555 -20.4499 -3.65041 -3.46284 -2.8263 -0.393671 -0.21788 0.354653 -3.52963 
272 2.43244 2.53604 -17.8922 -3.61735 -3.46436 -2.9083 -0.413519 -0.230097 0.336561 -3.52967 
273 2.76003 4.67769 -19.17 -2.99244 -3.50998 -2.57839 -0.399921 -0.733448 0.197 -3.53325 
274 4.59179 2.90045 -19.1662 -3.66758 -2.85922 -2.57106 -0.412053 -0.0327075 0.840007 -3.53318 
275 0.585902 4.28944 -17.8938 -3.6103 -4.71715 -3.15285 -0.221949 -0.881052 0.212154 -3.53364 
276 0.532088 4.29698 -15.3381 -3.56192 -4.72528 -3.20531 -0.212664 -0.878357 0.18188 -3.53367 
277 0.8376 6.4479 -16.6127 -2.9652 -4.36718 -2.78408 -0.252351 -1.31629 0.280747 -3.53371 
278 2.70208 4.71188 -16.6135 -2.94366 -3.51261 -2.63895 -0.408701 -0.739821 0.169312 -3.53328 
279 0.757726 6.45846 -14.0581 -2.91739 -4.36136 -2.8168 -0.235485 -1.31421 0.242592 -3.53378 
280 4.5557 2.95663 -16.6096 -3.62909 -2.84874 -2.63443 -0.43728 -0.0595852 0.824125 -3.53322 
281 2.40025 2.56604 -15.3359 -3.57997 -3.47045 -2.9697 -0.428434 -0.240021 0.322196 -3.5297 
282 2.36759 2.59554 -12.7807 -3.54651 -3.47765 -3.01723 -0.438933 -0.246787 0.310699 -3.52972 
283 2.64359 4.74517 -14.0581 -2.8987 -3.51466 -2.68528 -0.412037 -0.744761 0.145087 -3.5333 
284 4.51871 3.01228 -14.054 -3.59147 -2.84456 -2.67685 -0.458211 -0.0822882 0.811322 -3.53325 
285 0.478201 4.30373 -12.7833 -3.52267 -4.73322 -3.24305 -0.199208 -0.876006 0.154707 -3.53369 
286 0.424306 4.30969 -10.2291 -3.48914 -4.73793 -3.27158 -0.184605 -0.874489 0.130016 -3.53371 
287 0.677772 6.46785 -11.5041 -2.88059 -4.36029 -2.84039 -0.217099 -1.31229 0.207932 -3.53382 
288 2.5846 4.77758 -11.5035 -2.85975 -3.52167 -2.71915 -0.4116 -0.747942 0.124894 -3.53331 
289 0.59776 6.4761 -8.95065 -2.85135 -4.35973 -2.85618 -0.19767 -1.31143 0.176106 -3.53385 
290 4.4809 3.06737 -11.4993 -3.55845 -2.84422 -2.71183 -0.475923 -0.100944 0.800503 -3.53327 
291 2.33456 2.62454 -10.2262 -3.51525 -3.48547 -3.04932 -0.445824 -0.252505 0.299948 -3.52974 
292 2.30117 2.65304 -7.6723 -3.48624 -3.49483 -3.06748 -0.449183 -0.257904 0.290972 -3.52976 
293 2.52519 4.8091 -8.94958 -2.82849 -3.52906 -2.74065 -0.408017 -0.750139 0.106516 -3.53332 
294 4.4423 3.12191 -8.9453 -3.52624 -2.84817 -2.73461 -0.489531 -0.118165 0.791805 -3.53329 
295 0.370434 4.31488 -7.67549 -3.46287 -4.74268 -3.29037 -0.167413 -0.872753 0.108722 -3.53371 
296 0.316605 4.31933 -5.12212 -3.44262 -4.74593 -3.29889 -0.149837 -0.871659 0.0890529 -3.53372 
297 0.51774 6.48324 -6.39747 -2.82968 -4.35893 -2.86539 -0.176751 -1.31094 0.147923 -3.53387 
298 2.46542 4.83977 -6.396 -2.80063 -3.53608 -2.75173 -0.401514 -0.751345 0.0901245 -3.53334 
299 0.437725 6.48931 -3.84447 -2.81352 -4.3587 -2.86913 -0.155606 -1.31047 0.12042 -3.53389 
300 4.403 3.1759 -6.39166 -3.49739 -2.8552 -2.74631 -0.50059 -0.133183 0.784279 -3.53331 
301 2.26748 2.68105 -5.1187 -3.46051 -3.50503 -3.07778 -0.450535 -0.262281 0.283408 -3.52978 
302 2.2335 2.7086 -2.56529 -3.43715 -3.51669 -3.08047 -0.44963 -0.266954 0.276811 -3.52979 
303 2.40529 4.8696 -3.84266 -2.77772 -3.54479 -2.7571 -0.393029 -0.75306 0.0744762 -3.53335 
304 4.36302 3.22933 -3.83829 -3.47249 -2.86493 -2.75213 -0.509419 -0.147728 0.778324 -3.53332 
305 0.262818 4.32307 -2.56888 -3.42716 -4.74846 -3.30137 -0.131616 -0.870761 0.0702896 -3.53373 
306 0.357733 6.49431 -1.29154 -2.80247 -4.36067 -2.86855 -0.134022 -1.31074 0.0938788 -3.5339 
307 2.34483 4.8986 -1.28941 -2.75898 -3.55513 -2.75613 -0.382483 -0.754672 0.0593053 -3.53336 
308 4.32238 3.28223 -1.28502 -3.4497 -2.87793 -2.75176 -0.515988 -0.16166 0.772675 -3.53332 
309 2.42854 7.0905 -0.0125247 -2.22722 -3.36183 -2.42329 -0.340447 -1.16907 -0.155083 -3.53293 
310 0.4265 8.66883 -0.0143434 -2.26309 -4.0441 -2.50249 -0.130955 -1.70783 0.103414 -3.53363 
311 0.320218 8.6733 2.53833 -2.25882 -4.04845 -2.49625 -0.10704 -1.70911 0.0687056 -3.53363 
312 0.468966 10.8459 1.26251 -1.73927 -3.76118 -2.15629 -0.127322 -2.0549 0.10196 -3.53304 