ITEM: TIMESTEP
0
ITEM: NUMBER OF ATOMS
37664
ITEM: BOX BOUNDS ff ff ff
-100 100
-100 100
-156.15 156.15
ITEM: ATOMS id x y z v_peratom_sxx v_peratom_syy v_peratom_szz v_peratom_sxy v_peratom_sxz v_peratom_syz c_atomPE 
1 -3.34688e-08 -6.86617e-07 0.000560326 -5.17422 -5.17422 -9.54932 1.7532e-07 -1.91362e-07 -4.02459e-07 -3.5152 
2 -1.80748e-08 -6.04568e-07 2.55354 -5.17188 -5.17188 -9.54409 3.66013e-07 -7.18713e-07 2.89868e-07 -3.51522 
3 3.55583e-08 -5.14436e-07 5.10671 -5.16566 -5.16566 -9.5306 1.45639e-07 -1.32959e-06 9.21391e-07 -3.51528 
4 9.02374e-08 -4.52709e-07 7.66006 -5.15406 -5.15406 -9.50308 3.1455e-07 -1.80284e-06 1.7206e-06 -3.51541 
5 1.75703e-07 -4.02356e-07 10.214 -5.13792 -5.13792 -9.46486 3.64715e-07 -1.81526e-06 2.39661e-06 -3.51559 
6 2.76718e-07 -3.69541e-07 12.7684 -5.11614 -5.11614 -9.41286 4.47193e-07 -1.88892e-06 2.6486e-06 -3.51583 
7 3.7984e-07 -3.39706e-07 15.3237 -5.08531 -5.08531 -9.33971 7.41873e-07 -1.23411e-06 2.94486e-06 -3.51616 
8 5.13607e-07 -3.20889e-07 17.8801 -5.04453 -5.04453 -9.2492 7.29444e-07 -3.57474e-07 2.67896e-06 -3.51659 
9 6.27399e-07 -3.08586e-07 20.4378 -4.99061 -4.9906 -9.12748 1.04973e-06 7.57894e-07 2.43317e-06 -3.51713 
10 7.73602e-07 -3.00124e-07 22.9974 -4.91891 -4.91891 -8.97477 8.4598e-07 2.74497e-06 1.88172e-06 -3.51782 
11 8.95018e-07 -2.99687e-07 25.5592 -4.82445 -4.82445 -8.78259 7.35584e-07 4.71844e-06 1.26875e-06 -3.51868 
12 1.04333e-06 -2.82784e-07 28.1236 -4.69971 -4.69971 -8.54626 3.5264e-07 7.55012e-06 6.4274e-07 -3.51971 
13 1.17592e-06 -2.56959e-07 30.691 -4.54013 -4.54013 -8.26981 -9.08677e-08 1.00255e-05 4.1035e-07 -3.5209 
14 1.31086e-06 -1.86986e-07 33.2617 -4.34313 -4.34313 -7.9572 -9.48614e-07 1.21254e-05 1.25949e-06 -3.52221 
15 1.40182e-06 -6.68177e-08 35.8356 -4.11773 -4.11773 -7.62866 -1.82255e-06 1.22418e-05 3.27342e-06 -3.52348 
16 1.41404e-06 1.20876e-07 38.4123 -3.87945 -3.87945 -7.30117 -2.86247e-06 1.00428e-05 6.64071e-06 -3.52459 
17 1.3037e-06 3.20079e-07 40.9916 -3.63971 -3.63971 -6.98231 -3.66144e-06 4.22848e-06 9.46208e-06 -3.52549 
18 1.10131e-06 4.70639e-07 43.573 -3.40019 -3.40019 -6.66101 -3.07238e-06 -2.15365e-06 9.07034e-06 -3.52621 
19 8.57568e-07 5.38204e-07 46.1568 -3.13526 -3.13526 -6.29728 5.63695e-07 -7.04989e-06 5.63171e-06 -3.52696 
20 4.04357e-07 5.61956e-07 48.7435 -2.7508 -2.75079 -5.85713 2.94403e-06 -2.23416e-05 4.34094e-06 -3.52783 
21 5.95933e-07 -4.11185e-08 51.3317 -1.92333 -1.92334 -4.91892 1.13984e-05 9.69528e-06 -1.7583e-05 -3.53203 
22 4.01304e-07 -1.42881e-06 53.9138 -0.851591 -0.851597 -8.91761 3.73467e-06 -5.81682e-06 -7.1531e-05 -3.48169 
23 8.71386e-07 -1.98378e-06 56.3885 1.68569 1.68569 1.87725 -9.53205e-07 8.77556e-06 -2.64608e-06 -2.55581 
24 -1.23087e-07 -1.12453e-06 -53.8876 -2.60758 -2.60756 -6.54996 -1.94382e-05 1.97549e-05 -2.88496e-05 -3.40182 
25 1.02659e-07 -1.55837e-06 -51.3239 -2.07848 -2.07849 -5.57688 -5.27046e-06 2.73802e-05 -7.5559e-06 -3.52873 
26 6.54754e-07 -9.76719e-07 -48.7462 -2.69017 -2.69018 -6.14073 -2.36487e-06 -5.98744e-06 2.13049e-06 -3.52642 
27 5.67544e-07 -7.36702e-07 -46.1644 -3.01559 -3.0156 -6.3395 1.86343e-06 -1.12742e-05 -3.17709e-07 -3.52682 
28 3.6759e-07 -6.22828e-07 -43.5819 -3.29567 -3.29567 -6.59798 1.84074e-06 -9.54926e-06 -3.61698e-06 -3.52639 
29 1.70056e-07 -6.35845e-07 -41.0002 -3.54966 -3.54965 -6.88455 1.96764e-06 -4.58393e-06 -3.42904e-06 -3.5258 
30 6.12451e-08 -6.8688e-07 -38.4203 -3.79868 -3.79868 -7.19246 1.60121e-06 -9.89426e-07 -1.35648e-06 -3.52496 
31 2.74835e-08 -7.28762e-07 -35.8425 -4.04415 -4.04414 -7.51914 1.23708e-06 5.49032e-07 1.76635e-07 -3.5239 
32 3.76797e-08 -7.48176e-07 -33.2676 -4.27679 -4.27679 -7.85015 9.26945e-07 1.06648e-06 8.90947e-07 -3.52266 
33 6.74075e-08 -7.6785e-07 -30.6957 -4.48411 -4.4841 -8.16936 4.50475e-07 1.44265e-06 1.10572e-06 -3.52136 
34 9.33051e-08 -7.77996e-07 -28.1271 -4.65738 -4.65738 -8.46059 3.26098e-07 1.79713e-06 1.1603e-06 -3.52013 
35 1.17073e-07 -8.01226e-07 -25.5616 -4.79528 -4.79528 -8.71134 -7.15164e-08 2.25717e-06 1.39786e-06 -3.51903 
36 1.20751e-07 -8.21614e-07 -22.9989 -4.90158 -4.90158 -8.92227 2.01436e-07 2.41532e-06 1.6763e-06 -3.5181 
37 1.19741e-07 -8.57248e-07 -20.4386 -4.98179 -4.98179 -9.09011 -2.23286e-07 2.66847e-06 2.18167e-06 -3.51734 
38 9.66467e-08 -8.88547e-07 -17.8802 -5.04148 -5.04148 -9.22207 8.23259e-09 2.47307e-06 2.55008e-06 -3.51674 
39 7.12934e-08 -9.17013e-07 -15.3234 -5.08672 -5.08671 -9.32621 -1.94947e-07 2.38446e-06 2.64303e-06 -3.51625 
40 3.50956e-08 -9.34259e-07 -12.7678 -5.11867 -5.11867 -9.40167 2.08586e-07 2.22822e-06 2.406e-06 -3.5159 
41 8.21309e-09 -9.31898e-07 -10.2131 -5.14152 -5.14152 -9.46054 -1.52413e-07 1.68245e-06 1.80534e-06 -3.51563 
42 -2.85934e-08 -9.13334e-07 -7.65918 -5.15735 -5.15735 -9.50129 3.73938e-07 1.37958e-06 8.10616e-07 -3.51543 
43 -3.62524e-08 -8.49433e-07 -5.10564 -5.16779 -5.16779 -9.5284 1.27575e-07 8.08543e-07 1.10208e-07 -3.5153 
44 -5.45429e-08 -7.77939e-07 -2.55249 -5.17351 -5.17351 -9.5449 4.53662e-07 3.0094e-07 -2.99066e-07 -3.51522 
45 0.0963403 2.16002 1.27702 -4.03292 -5.14026 -3.84404 -0.0493786 -0.44393 0.0177836 -3.52909 
46 0.0702126 2.16103 3.83002 -4.03218 -5.13702 -3.83616 -0.0356373 -0.444366 0.00795706 -3.52911 
47 0.0440887 2.16166 6.38322 -4.03477 -5.13602 -3.82019 -0.0222 -0.444597 -0.00198674 -3.52911 
48 0.0179654 2.162 8.93677 -4.03919 -5.12759 -3.79461 -0.00864264 -0.444956 -0.0124566 -3.52914 
49 -0.00814544 2.16194 11.4908 -4.04597 -5.12161 -3.75883 0.00464083 -0.444968 -0.0242167 -3.52916 
50 -0.0342341 2.16159 14.0456 -4.05465 -5.10703 -3.71058 0.0175145 -0.445138 -0.0370414 -3.5292 
51 -0.0602869 2.16086 16.6013 -4.06591 -5.09109 -3.64634 0.0298271 -0.444839 -0.0516381 -3.52924 
52 -0.086286 2.1598 19.1582 -4.07824 -5.06644 -3.56305 0.0409827 -0.444687 -0.067791 -3.52931 
53 -0.112235 2.1584 21.7166 -4.09122 -5.03201 -3.4567 0.0507707 -0.444337 -0.0866145 -3.52939 
54 -0.138127 2.15666 24.277 -4.10162 -4.98473 -3.32174 0.0588065 -0.443803 -0.107392 -3.52949 
55 -0.163963 2.15467 26.8398 -4.10328 -4.91581 -3.15474 0.0645223 -0.443004 -0.129882 -3.52964 
56 -0.189731 2.15243 29.4053 -4.08761 -4.82051 -2.9524 0.0675326 -0.441807 -0.152268 -3.52983 
57 -0.215426 2.15007 31.9741 -4.04217 -4.68905 -2.71708 0.0680013 -0.439754 -0.170708 -3.5301 
58 -0.241028 2.14768 34.5462 -3.95325 -4.51698 -2.45813 0.066533 -0.43732 -0.181861 -3.53045 
59 -0.266513 2.14529 37.1215 -3.81547 -4.31122 -2.18955 0.0648995 -0.433792 -0.185777 -3.53086 
60 -0.291832 2.14286 39.6995 -3.63676 -4.08404 -1.92302 0.0640994 -0.42871 -0.187668 -3.53127 
61 -0.316967 2.14028 42.2798 -3.42981 -3.84893 -1.65957 0.0653883 -0.422169 -0.193293 -3.53163 
62 -0.341964 2.13749 44.8621 -3.20035 -3.60113 -1.3875 0.0676144 -0.415337 -0.209536 -3.53192 
63 -0.367012 2.13472 47.4465 -2.91805 -3.29089 -1.10393 0.0672796 -0.411146 -0.228022 -3.53223 
64 -0.392512 2.13371 50.032 -2.43809 -2.79671 -0.49554 0.065444 -0.422089 -0.198526 -3.53322 
65 -0.418483 2.1304 52.6263 -1.76555 -2.00571 -0.56148 0.0455715 -0.308992 -0.729802 -3.52457 
66 -0.44812 2.14653 55.1778 6.97639 7.73837 2.43105 0.0329652 -0.597341 1.77032 -3.02528 
67 0.649859 2.05055 -55.162 1.3893 0.842208 -0.67887 -0.188268 -0.0992012 1.20753 -3.26036 
68 0.633027 2.08274 -52.6122 -1.11183 -2.21857 -0.457736 -0.374487 -0.48928 -0.161463 -3.53566 
69 0.607028 2.08678 -50.0319 -1.997 -2.55465 -0.862595 -0.172217 -0.427549 0.0909565 -3.534 
70 0.581497 2.08898 -47.453 -2.63346 -3.07249 -1.19754 -0.131098 -0.400133 0.170208 -3.53289 
71 0.556842 2.09304 -44.8708 -3.05269 -3.44354 -1.35978 -0.112973 -0.395393 0.21118 -3.53224 
72 0.532319 2.09774 -42.2886 -3.34885 -3.72973 -1.5882 -0.105055 -0.399915 0.220956 -3.53182 
73 0.507651 2.10255 -39.7078 -3.58975 -3.98734 -1.83825 -0.104022 -0.406343 0.225563 -3.53141 
74 0.482768 2.10739 -37.1289 -3.78926 -4.22613 -2.10183 -0.108107 -0.412149 0.227883 -3.53098 
75 0.457669 2.11224 -34.5526 -3.94429 -4.44317 -2.37157 -0.116077 -0.417019 0.226052 -3.53056 
76 0.432411 2.11713 -31.9793 -4.05025 -4.6253 -2.63543 -0.125283 -0.421242 0.217433 -3.53019 
77 0.407014 2.122 -29.4093 -4.1118 -4.77147 -2.87962 -0.133927 -0.425627 0.201485 -3.52989 
78 0.381512 2.12679 -26.8426 -4.13889 -4.8795 -3.0945 -0.139746 -0.429296 0.180886 -3.52967 
79 0.355913 2.13139 -24.2788 -4.14308 -4.95876 -3.27532 -0.142267 -0.432416 0.15879 -3.52951 
80 0.330229 2.13574 -21.7176 -4.13409 -5.01552 -3.4227 -0.141469 -0.43504 0.137567 -3.52938 
81 0.304467 2.1398 -19.1585 -4.11904 -5.05438 -3.54026 -0.137375 -0.437152 0.117777 -3.52929 
82 0.278625 2.14351 -16.6011 -4.10274 -5.08308 -3.63166 -0.130844 -0.438907 0.100366 -3.52923 
83 0.252709 2.1469 -14.0451 -4.08661 -5.10317 -3.70202 -0.122247 -0.440419 0.084839 -3.52918 
84 0.226734 2.14995 -11.4901 -4.07186 -5.11578 -3.75434 -0.111989 -0.44148 0.07093 -3.52915 
85 0.200706 2.15264 -8.93588 -4.05984 -5.12773 -3.79253 -0.100863 -0.442318 0.0585858 -3.52911 
86 0.174648 2.15502 -6.38223 -4.04913 -5.13217 -3.81933 -0.0886257 -0.442867 0.0476431 -3.52911 
87 0.148566 2.15701 -3.82897 -4.04125 -5.1379 -3.83614 -0.0761968 -0.443271 0.0373475 -3.52909 
88 0.122461 2.1587 -1.27594 -4.03575 -5.1387 -3.84369 -0.0629058 -0.443627 0.0274255 -3.52909 
89 0.219204 4.32675 0.000528724 -3.37023 -4.7437 -3.30605 -0.0697518 -0.922071 0.0466426 -3.53367 
90 0.289843 6.49913 1.27677 -2.76349 -4.34484 -2.86955 -0.0706779 -1.34877 0.0552183 -3.53383 
91 2.20911 2.73775 0.000533338 -3.37025 -3.54945 -3.05586 -0.41492 -0.319504 0.257719 -3.52985 
92 2.17583 2.76425 2.55349 -3.35955 -3.5591 -3.05245 -0.41219 -0.325638 0.249848 -3.52985 
93 2.2958 4.92899 1.27632 -2.71088 -3.57678 -2.73129 -0.340723 -0.794804 0.021377 -3.53337 
94 4.29249 3.33771 1.27754 -3.38548 -2.90243 -2.73066 -0.494999 -0.204153 0.765695 -3.53337 
95 0.166848 4.32908 2.55333 -3.3685 -4.74422 -3.30255 -0.0531257 -0.92259 0.0283272 -3.53368 
96 0.114494 4.33071 5.10624 -3.37137 -4.74456 -3.29265 -0.0360243 -0.92321 0.00939 -3.53368 
97 0.211185 6.50208 3.82934 -2.76424 -4.34687 -2.86435 -0.0516885 -1.34991 0.0287394 -3.53383 
98 2.23597 4.95629 3.82922 -2.70429 -3.58576 -2.7254 -0.328995 -0.797271 0.00520861 -3.53337 
99 0.132519 6.50399 6.38208 -2.77025 -4.3499 -2.85477 -0.0327933 -1.35142 0.00149705 -3.53382 
100 4.25175 3.38932 3.83045 -3.3745 -2.9163 -2.72372 -0.498964 -0.219359 0.759119 -3.53337 
101 2.14219 2.79027 5.10656 -3.35114 -3.56999 -3.04197 -0.407951 -0.331747 0.241888 -3.52985 
102 2.10819 2.8158 7.6599 -3.34529 -3.58238 -3.02453 -0.401933 -0.338231 0.233719 -3.52984 
103 2.17579 4.98274 6.3823 -2.70084 -3.59582 -2.71379 -0.315949 -0.800217 -0.0119175 -3.53337 
104 4.2103 3.44033 6.38354 -3.36541 -2.93239 -2.7106 -0.501011 -0.23467 0.752513 -3.53337 
105 0.062137 4.33164 7.65942 -3.37879 -4.74556 -3.27704 -0.0190985 -0.924036 -0.00982574 -3.53367 
106 0.00979093 4.33188 10.213 -3.39073 -4.74573 -3.25335 -0.00212711 -0.924946 -0.030942 -3.53367 
107 0.0538633 6.50481 8.9351 -2.78094 -4.3559 -2.83971 -0.0139775 -1.35289 -0.0265073 -3.53381 
108 2.11524 5.00831 8.9357 -2.70156 -3.60808 -2.69563 -0.301265 -0.80359 -0.0298576 -3.53337 
109 -0.0247533 6.50458 11.4885 -2.7972 -4.36225 -2.81853 0.00484114 -1.3548 -0.0566289 -3.53378 
110 4.16815 3.49071 8.93694 -3.35899 -2.95206 -2.69088 -0.500911 -0.250704 0.745425 -3.53337 
111 2.07385 2.84083 10.2136 -3.34125 -3.59533 -2.99846 -0.394486 -0.345689 0.224072 -3.52983 
112 2.03919 2.86535 12.768 -3.33978 -3.60933 -2.96232 -0.384972 -0.353664 0.213696 -3.52982 
113 2.05437 5.03299 11.4896 -2.70579 -3.62103 -2.66904 -0.284845 -0.807771 -0.0496255 -3.53336 
114 4.12531 3.54045 11.4908 -3.35487 -2.97347 -2.66291 -0.498629 -0.267876 0.736849 -3.53337 
115 -0.0425118 4.33141 12.7671 -3.40722 -4.74535 -3.22051 0.0142253 -0.92544 -0.053057 -3.53367 
116 -0.0947609 4.33023 15.322 -3.42908 -4.74475 -3.17737 0.0304649 -0.92602 -0.078174 -3.53366 
117 -0.103294 6.50325 14.0426 -2.81961 -4.37074 -2.78999 0.0232728 -1.35678 -0.0893713 -3.53375 
118 1.99318 5.05675 14.0441 -2.71564 -3.63547 -2.63356 -0.266729 -0.812737 -0.0716899 -3.53335 
119 -0.181732 6.50081 16.5974 -2.84893 -4.38004 -2.75207 0.0411274 -1.35898 -0.124976 -3.53371 
120 4.08178 3.5895 14.0453 -3.35431 -2.99895 -2.62525 -0.493577 -0.286666 0.72704 -3.53336 
121 2.00418 2.88931 15.3231 -3.341 -3.6243 -2.91457 -0.373161 -0.362876 0.201316 -3.52981 
122 1.96888 2.9127 17.8793 -3.34425 -3.63818 -2.8514 -0.358997 -0.37318 0.187067 -3.52979 
123 1.9317 5.07953 16.5995 -2.72983 -3.65027 -2.58604 -0.246564 -0.818532 -0.0966011 -3.53334 
124 4.03758 3.63781 16.6007 -3.3569 -3.02677 -2.57586 -0.485159 -0.307303 0.714916 -3.53335 
125 -0.146907 4.32834 17.8778 -3.45662 -4.74126 -3.11947 0.0456677 -0.926592 -0.105703 -3.53366 
126 -0.198952 4.32573 20.435 -3.48963 -4.73532 -3.04603 0.0600664 -0.92681 -0.136875 -3.53365 
127 -0.260014 6.49727 19.1532 -2.8856 -4.39046 -2.70225 0.0582833 -1.36138 -0.164913 -3.53365 
128 1.86995 5.10131 19.156 -2.7503 -3.66538 -2.52441 -0.224297 -0.826432 -0.125269 -3.53332 
129 -0.338136 6.49262 21.7103 -2.92985 -4.39996 -2.6368 0.0745822 -1.36399 -0.20936 -3.53359 
130 3.9927 3.68534 19.1573 -3.36277 -3.05704 -2.51258 -0.473295 -0.33055 0.700584 -3.53333 
131 1.93326 2.9355 20.4369 -3.3502 -3.65126 -2.77112 -0.342335 -0.385522 0.170583 -3.52976 
132 1.89733 2.95769 22.9961 -3.35681 -3.6601 -2.66884 -0.322821 -0.399949 0.151114 -3.52972 
133 1.80794 5.12207 21.7139 -2.77588 -3.67848 -2.44558 -0.199961 -0.835905 -0.157893 -3.53329 
134 3.94714 3.73206 21.7152 -3.3713 -3.08892 -2.43255 -0.457267 -0.357373 0.683358 -3.53331 
135 -0.250883 4.32242 22.9937 -3.52752 -4.7225 -2.95019 0.0732787 -0.926919 -0.171553 -3.53365 
136 -0.302681 4.31846 25.5545 -3.56684 -4.69926 -2.82835 0.084382 -0.926911 -0.209556 -3.53365 
137 -0.416065 6.4869 24.269 -2.98029 -4.40498 -2.55164 0.0895433 -1.36629 -0.258908 -3.53352 
138 1.74569 5.14181 24.2736 -2.80547 -3.68749 -2.34636 -0.173445 -0.847818 -0.195227 -3.53326 
139 -0.493782 6.4802 26.8298 -3.034 -4.40133 -2.44069 0.103231 -1.36775 -0.312586 -3.53347 
140 3.90093 3.77795 24.2749 -3.38108 -3.11952 -2.33229 -0.437171 -0.387567 0.662026 -3.53327 
141 1.86112 2.9793 25.5575 -3.36072 -3.66167 -2.54127 -0.300579 -0.416252 0.129011 -3.52967 
142 1.82468 3.00036 28.1213 -3.35658 -3.64935 -2.38442 -0.276286 -0.434057 0.104119 -3.52961 
143 1.68321 5.16059 26.8355 -2.83644 -3.68864 -2.22249 -0.145603 -0.86224 -0.236527 -3.53321 
144 3.85412 3.82303 26.8367 -3.38862 -3.14595 -2.2079 -0.413546 -0.421321 0.636435 -3.53322 
145 -0.354348 4.31394 28.1178 -3.6018 -4.65845 -2.67611 0.0931927 -0.925994 -0.249808 -3.53369 
146 -0.405862 4.30902 30.684 -3.62209 -4.5896 -2.48865 0.0991522 -0.924092 -0.288421 -3.53378 
147 -0.571259 6.47269 29.3931 -3.08483 -4.38088 -2.29756 0.114817 -1.36759 -0.367858 -3.53344 
148 1.62057 5.17849 29.4 -2.86255 -3.67532 -2.07025 -0.117379 -0.878085 -0.279638 -3.53316 
149 -0.648457 6.46463 31.9594 -3.12152 -4.33186 -2.11758 0.123304 -1.36573 -0.419756 -3.53347 
150 3.80682 3.86735 29.4012 -3.38865 -3.1623 -2.05673 -0.386986 -0.457194 0.60744 -3.53316 
151 1.78809 3.02098 30.6881 -3.33442 -3.61463 -2.19626 -0.251272 -0.451145 0.0797815 -3.52956 
152 1.75151 3.04133 33.2582 -3.28148 -3.54666 -1.9801 -0.227776 -0.463967 0.0601398 -3.52954 
153 1.5579 5.19574 31.9675 -2.87368 -3.63868 -1.88901 -0.0910255 -0.893253 -0.319861 -3.5331 
154 3.75923 3.91103 31.9686 -3.37072 -3.15766 -1.87638 -0.359971 -0.49104 0.578064 -3.53309 
155 -0.457194 4.3039 33.2535 -3.61194 -4.48325 -2.26868 0.10142 -0.92124 -0.320151 -3.53394 
156 -0.508339 4.29882 35.8265 -3.55305 -4.32929 -2.02461 0.100959 -0.917087 -0.340541 -3.53421 
157 -0.725368 6.45643 34.5293 -3.12605 -4.2389 -1.90159 0.128093 -1.36207 -0.460842 -3.53359 
158 1.49535 5.21273 34.5384 -2.8533 -3.56673 -1.68019 -0.0696203 -0.90443 -0.349877 -3.53306 
159 -0.801946 6.44848 37.1029 -3.07686 -4.0866 -1.6598 0.12938 -1.35514 -0.485855 -3.53386 
160 3.71167 3.95434 34.5394 -3.32007 -3.11828 -1.66861 -0.335927 -0.517528 0.553859 -3.53306 
161 1.71512 3.06165 35.8317 -3.18345 -3.43454 -1.74256 -0.208802 -0.469281 0.0494374 -3.5296 
162 1.67905 3.08204 38.4082 -3.03494 -3.27726 -1.49437 -0.195358 -0.466322 0.0472426 -3.52976 
163 1.43313 5.22986 37.1127 -2.78237 -3.44664 -1.45113 -0.0555048 -0.905975 -0.36394 -3.53312 
164 3.66449 3.9976 37.1136 -3.21756 -3.03004 -1.43985 -0.317988 -0.531521 0.539515 -3.53311 
165 -0.55923 4.29384 38.4027 -3.43662 -4.13025 -1.77177 0.0992355 -0.909455 -0.351025 -3.53456 
166 -0.609759 4.2888 40.9816 -3.26971 -3.90248 -1.52254 0.0988502 -0.898544 -0.360412 -3.5349 
167 -0.87808 6.44085 39.6797 -2.9618 -3.87478 -1.41193 0.127915 -1.34294 -0.497526 -3.53423 
168 1.37149 5.24732 39.69 -2.64963 -3.27312 -1.21339 -0.0491893 -0.895998 -0.365491 -3.53329 
169 -0.953652 6.43329 42.2589 -2.78943 -3.62344 -1.17676 0.12647 -1.32565 -0.508636 -3.53459 
170 3.61791 4.04096 39.6909 -3.05367 -2.88765 -1.20221 -0.305781 -0.533841 0.53328 -3.53327 
171 1.64331 3.10245 40.9873 -2.84428 -3.08335 -1.24374 -0.185814 -0.460329 0.04568 -3.52999 
172 1.60782 3.12272 43.5685 -2.62061 -2.86126 -0.988654 -0.177595 -0.457828 0.036176 -3.53026 
173 1.31048 5.26498 42.2697 -2.46181 -3.05622 -0.977242 -0.0481582 -0.881385 -0.369203 -3.53353 
174 3.57192 4.08433 42.2706 -2.83476 -2.69933 -0.967897 -0.297618 -0.534057 0.524379 -3.53352 
175 -0.65991 4.28353 43.5624 -3.06337 -3.65617 -1.27693 0.100475 -0.884426 -0.377436 -3.53522 
176 -0.709884 4.27798 46.1447 -2.82999 -3.39062 -1.01554 0.10369 -0.870124 -0.40762 -3.53548 
177 -1.02872 6.42561 44.8394 -2.5663 -3.34081 -0.960696 0.126545 -1.30479 -0.52492 -3.53494 
178 1.24996 5.28266 44.851 -2.22535 -2.80073 -0.744995 -0.0503392 -0.870578 -0.38616 -3.53384 
179 -1.10364 6.4181 47.4204 -2.29985 -3.01665 -0.776016 0.129254 -1.2861 -0.535838 -3.53526 
180 3.52631 4.12764 44.8518 -2.56695 -2.47341 -0.742639 -0.29061 -0.541814 0.504016 -3.53381 
181 1.57236 3.14284 46.1515 -2.3692 -2.61423 -0.711095 -0.170048 -0.466939 0.00986286 -3.53052 
182 1.53673 3.16322 48.7363 -2.09071 -2.35798 -0.340743 -0.183248 -0.490647 -0.0289965 -3.53014 
183 1.18946 5.30038 47.4331 -1.94766 -2.50417 -0.5145 -0.0633185 -0.876568 -0.430358 -3.5341 
184 3.48077 4.17092 47.4337 -2.2431 -2.21962 -0.534048 -0.284563 -0.567942 0.460502 -3.53401 
185 -0.760227 4.27323 48.7285 -2.60545 -3.07396 -0.671233 0.0967261 -0.865468 -0.409962 -3.53513 
186 -0.811621 4.26877 51.3169 -1.98813 -2.35139 0.310814 0.0839169 -0.840652 -0.653601 -3.53805 
187 -1.17889 6.41384 50.0002 -2.06263 -2.54 -0.336021 0.0919849 -1.28839 -0.615195 -3.5357 
188 1.12775 5.31799 50.0156 -1.56816 -2.07818 -0.0186218 -0.111622 -0.952011 -0.596906 -3.53483 
189 -1.25707 6.40546 52.5877 -1.6123 -2.4869 0.643253 0.175646 -1.316 -0.613306 -3.53282 
190 3.43505 4.21346 50.0156 -1.75646 -1.85101 -0.0331048 -0.309048 -0.6738 0.313059 -3.5349 
191 1.50027 3.18358 51.3264 -1.43144 -1.70132 0.660693 -0.172545 -0.547179 -0.133652 -3.53273 
192 1.46587 3.20964 53.9052 0.0267818 0.954083 -0.795562 0.56634 -0.560911 0.139082 -3.37565 
193 1.06597 5.33731 52.6041 -1.24903 -1.8984 0.441724 -0.236934 -0.801385 -0.410906 -3.52779 
194 3.38747 4.26008 52.6041 -1.41006 -1.71328 0.390065 -0.390755 -0.639538 0.587199 -3.52746 
195 -0.866323 4.2769 53.8949 -0.0509367 -0.206001 -1.18049 0.0793446 -1.26165 1.02745 -3.38131 
196 1.3298 4.1174 -56.3442 5.06939 2.9057 1.60245 -1.25467 -0.273901 0.110249 -2.79034 
197 -1.33605 6.40133 55.1665 4.1803 2.79732 1.29005 0.319959 -1.52315 0.197736 -3.26107 
198 1.00488 5.36129 55.1754 5.6418 6.63177 2.70761 0.369733 -0.636494 -0.0327933 -3.15047 
199 1.98371 6.26223 -55.1334 6.93978 9.11553 2.92895 0.134213 -0.84789 -0.525603 -3.02309 
200 3.34328 4.30996 55.1754 5.53061 7.35739 2.86899 0.118753 -0.278727 0.56253 -3.15115 
201 2.87095 2.09325 -56.362 4.04252 6.00648 1.88086 -3.16451 0.252581 0.341731 -2.79939 
202 2.84551 2.1252 -53.8874 0.164846 0.763185 -3.02657 -0.982169 -0.732841 -0.162391 -3.51266 
203 3.53831 4.21674 -55.1525 6.03164 6.27389 1.75945 0.30244 -1.21956 -0.0444779 -3.1433 
204 5.07312 2.13635 -55.1525 6.04996 7.03883 2.00324 0.446081 -0.528134 0.0804991 -3.14511 
205 1.29262 4.16451 -53.8815 0.861263 -0.34849 -3.67501 -0.408976 -0.573877 0.839012 -3.51412 
206 1.24176 4.17585 -51.3147 -1.28629 -1.91046 -0.369592 -0.214922 -0.880764 0.219368 -3.53903 
207 1.90264 6.26187 -52.5941 -0.91793 -1.45705 -0.573458 -0.184234 -1.1681 0.819879 -3.52791 
208 3.4607 4.22944 -52.6036 -0.748706 -0.925787 0.0957749 -0.677574 -0.496138 0.191312 -3.53018 
209 1.82403 6.27282 -50.0101 -1.63971 -2.32293 -0.255486 -0.201893 -1.28134 0.438458 -3.53674 
210 5.01221 2.17771 -52.6036 -1.34175 -0.34839 0.0549618 -0.502596 0.0191057 0.991474 -3.52952 
211 2.80522 2.14769 -51.32 -1.10326 -0.946413 -0.110965 -0.277902 -0.332975 0.261192 -3.53413 
212 2.77231 2.17485 -48.7404 -1.96375 -1.83571 -0.53996 -0.292194 -0.215674 0.349719 -3.53087 
213 3.40036 4.25787 -50.02 -1.42992 -1.65347 -0.13598 -0.408289 -0.706542 0.290888 -3.53495 
214 4.971 2.23184 -50.02 -1.8428 -1.27326 -0.110818 -0.296262 0.0241694 0.841003 -3.53498 
215 1.18968 4.18069 -48.7354 -2.17543 -2.75286 -0.777092 -0.180881 -0.848347 0.297469 -3.53641 
216 1.13984 4.18727 -46.1537 -2.6337 -3.19381 -0.967498 -0.168617 -0.8323 0.411988 -3.53602 
217 1.74858 6.27909 -47.4304 -2.09769 -2.83347 -0.665023 -0.214916 -1.23997 0.555664 -3.53587 
218 3.34505 4.28794 -47.441 -1.89523 -2.20818 -0.555465 -0.301831 -0.635221 0.344797 -3.53413 
219 1.67468 6.29128 -44.849 -2.46704 -3.19584 -0.85617 -0.203365 -1.24388 0.611611 -3.53531 
220 4.93492 2.28493 -47.4402 -2.31692 -1.78921 -0.535406 -0.213371 0.112661 0.873274 -3.53418 
221 2.7422 2.20265 -46.1592 -2.35916 -2.27063 -0.733199 -0.234853 -0.155487 0.401839 -3.53072 
222 2.71395 2.23169 -43.5772 -2.66927 -2.59652 -0.945496 -0.220522 -0.145799 0.420528 -3.53035 
223 3.2916 4.32053 -44.8602 -2.23047 -2.5773 -0.710364 -0.262848 -0.622484 0.378871 -3.5339 
224 4.90216 2.3384 -44.8593 -2.65124 -2.1477 -0.716415 -0.181261 0.148748 0.903635 -3.53391 
225 1.09073 4.1962 -43.5716 -2.97027 -3.51668 -1.19618 -0.157554 -0.840873 0.434639 -3.53551 
226 1.04151 4.20573 -40.9902 -3.22788 -3.79366 -1.43742 -0.155788 -0.854587 0.439369 -3.53508 
227 1.60096 6.30506 -42.2678 -2.74803 -3.50507 -1.08424 -0.203371 -1.26221 0.624902 -3.53481 
228 3.23908 4.3545 -42.279 -2.50258 -2.8769 -0.910715 -0.246728 -0.625723 0.395254 -3.53358 
229 1.52677 6.31944 -39.6877 -2.9565 -3.77439 -1.32821 -0.210186 -1.28134 0.626941 -3.53436 
230 4.87091 2.39269 -42.2781 -2.9331 -2.4332 -0.922871 -0.171517 0.159582 0.927982 -3.53358 
231 2.68621 2.26138 -40.9958 -2.92303 -2.86068 -1.17617 -0.2187 -0.144907 0.433406 -3.53004 
232 2.65853 2.2916 -38.416 -3.13421 -3.07812 -1.41927 -0.223908 -0.144775 0.444078 -3.52979 
233 3.18677 4.38946 -39.6988 -2.7183 -3.11994 -1.13495 -0.24169 -0.631408 0.404689 -3.53331 
234 4.84021 2.44791 -39.698 -3.16812 -2.65337 -1.14778 -0.172682 0.163435 0.948995 -3.53331 
235 0.991885 4.21544 -38.4105 -3.42481 -4.0396 -1.68884 -0.160622 -0.86721 0.43925 -3.53467 
236 0.941826 4.22529 -35.8333 -3.56314 -4.25122 -1.94438 -0.169611 -0.877813 0.432792 -3.5343 
237 1.45196 6.33426 -37.1098 -3.09677 -3.99987 -1.58084 -0.220327 -1.29753 0.620543 -3.53396 
238 3.13445 4.4253 -37.1207 -2.8776 -3.30614 -1.36952 -0.24531 -0.638296 0.405906 -3.53312 
239 1.37659 6.34953 -34.5351 -3.16892 -4.16969 -1.8279 -0.229634 -1.31001 0.600844 -3.53365 
240 4.80981 2.50403 -37.1198 -3.35385 -2.81224 -1.38154 -0.183428 0.162596 0.962433 -3.53313 
241 2.63085 2.3223 -35.8385 -3.30193 -3.24923 -1.6665 -0.235734 -0.147463 0.448922 -3.52961 
242 2.60316 2.35341 -33.2639 -3.42208 -3.37229 -1.90749 -0.254018 -0.155584 0.444838 -3.52953 
243 3.08204 4.46191 -34.5454 -2.97882 -3.43437 -1.60016 -0.25628 -0.649467 0.393879 -3.53304 
244 4.77962 2.56095 -34.5444 -3.48448 -2.91093 -1.61191 -0.203393 0.152053 0.96281 -3.53305 
245 0.891433 4.23531 -33.259 -3.64224 -4.41982 -2.19347 -0.17964 -0.885854 0.416398 -3.534 
246 0.840766 4.24541 -30.6882 -3.66984 -4.54252 -2.42279 -0.187825 -0.893065 0.388751 -3.5338 
247 1.30078 6.36513 -31.9639 -3.18363 -4.28299 -2.05334 -0.235871 -1.32006 0.565613 -3.53347 
248 3.02945 4.49901 -31.9733 -3.02719 -3.51174 -1.81472 -0.274013 -0.666556 0.367896 -3.53305 
249 1.22457 6.38074 -29.3962 -3.15863 -4.34876 -2.24672 -0.237663 -1.32836 0.518228 -3.5334 
250 4.7495 2.61838 -31.9723 -3.56342 -2.95951 -1.82711 -0.231317 0.129046 0.95075 -3.53305 
251 2.57538 2.38479 -30.6926 -3.49576 -3.45079 -2.13136 -0.277138 -0.170341 0.431423 -3.52952 
252 2.54735 2.41622 -28.1246 -3.5317 -3.49505 -2.3298 -0.302167 -0.189159 0.411779 -3.52956 
253 2.9765 4.53623 -29.4047 -3.03443 -3.55241 -2.00521 -0.295155 -0.687109 0.332131 -3.5331 
254 4.71916 2.67605 -29.4035 -3.60089 -2.9727 -2.01834 -0.264035 0.0961926 0.930849 -3.53309 
255 0.789849 4.25541 -28.1208 -3.6607 -4.62539 -2.62189 -0.192026 -0.899474 0.353212 -3.53368 
256 0.73871 4.2651 -25.5565 -3.63015 -4.67788 -2.788 -0.192383 -0.904696 0.314041 -3.53362 
257 1.14798 6.39598 -26.8318 -3.11146 -4.3813 -2.40387 -0.234993 -1.33458 0.464625 -3.53341 
258 2.92302 4.57318 -26.8391 -3.01539 -3.5695 -2.16788 -0.316455 -0.708007 0.292037 -3.53316 
259 1.07105 6.41055 -24.2701 -3.05524 -4.39276 -2.52749 -0.228705 -1.33852 0.410443 -3.53345 
260 4.68829 2.73367 -26.8379 -3.60926 -2.9655 -2.18164 -0.297923 0.0585955 0.907211 -3.53315 
261 2.51896 2.44749 -25.5597 -3.54181 -3.51677 -2.4988 -0.326587 -0.209414 0.389627 -3.52961 
262 2.49012 2.47847 -22.9974 -3.53443 -3.52477 -2.63747 -0.348615 -0.228208 0.368228 -3.52966 
263 2.86892 4.6096 -24.2763 -2.98242 -3.57363 -2.30306 -0.335304 -0.726579 0.252795 -3.53321 
264 4.65668 2.79103 -24.2751 -3.59931 -2.94843 -2.31637 -0.330438 0.0210001 0.883632 -3.5332 
265 0.687381 4.27431 -22.9948 -3.58974 -4.70838 -2.92175 -0.188961 -0.908475 0.275312 -3.5336 
266 0.635867 4.28292 -20.4354 -3.54718 -4.72603 -3.02771 -0.182131 -0.911695 0.239198 -3.5336 
267 0.993814 6.42424 -21.7107 -2.99852 -4.39203 -2.62293 -0.219568 -1.34099 0.358869 -3.53352 
268 2.81418 4.64531 -21.7159 -2.94327 -3.5711 -2.41285 -0.350859 -0.742111 0.216687 -3.53326 
269 0.916301 6.4369 -19.1531 -2.94622 -4.38515 -2.69543 -0.207854 -1.3425 0.311681 -3.53359 
270 4.62421 2.84801 -21.7147 -3.57927 -2.92859 -2.42489 -0.360235 -0.0144749 0.862088 -3.53325 
271 2.46079 2.50907 -20.4375 -3.51812 -3.52628 -2.74945 -0.367346 -0.245034 0.34864 -3.52971 
272 2.43094 2.53923 -17.8794 -3.49761 -3.5256 -2.83792 -0.382484 -0.259677 0.331396 -3.52975 
273 2.75878 4.68021 -19.1574 -2.90295 -3.56633 -2.50009 -0.362218 -0.754383 0.184255 -3.53329 
274 4.59082 2.90452 -19.1562 -3.55432 -2.9103 -2.51112 -0.386588 -0.0463233 0.843689 -3.53328 
275 0.584182 4.29086 -17.8778 -3.5075 -4.73544 -3.10936 -0.172781 -0.914319 0.206107 -3.53361 
276 0.532348 4.29811 -15.3215 -3.4725 -4.73973 -3.17165 -0.161367 -0.916262 0.176527 -3.53362 
277 0.838543 6.44849 -16.597 -2.90069 -4.37622 -2.75042 -0.19415 -1.34366 0.2694 -3.53365 
278 2.70274 4.71426 -16.6005 -2.86513 -3.56172 -2.56895 -0.369381 -0.764175 0.156213 -3.53331 
279 0.760548 6.45898 -14.0419 -2.86248 -4.36734 -2.79111 -0.178798 -1.34457 0.231323 -3.5337 
280 4.55649 2.96054 -16.5993 -3.52751 -2.89531 -2.57844 -0.409443 -0.0742189 0.827912 -3.53331 
281 2.4006 2.56896 -15.3228 -3.47536 -3.52471 -2.9063 -0.394541 -0.272302 0.31667 -3.52978 
282 2.36975 2.59824 -12.7674 -3.4539 -3.5253 -2.95854 -0.403449 -0.282975 0.303898 -3.52979 
283 2.64609 4.74747 -14.0448 -2.83068 -3.55843 -2.62194 -0.372916 -0.772383 0.131212 -3.53333 
284 4.52125 3.01606 -14.0436 -3.50141 -2.88503 -2.62963 -0.428946 -0.099094 0.814882 -3.53332 
285 0.480353 4.30465 -12.7664 -3.44287 -4.7424 -3.21892 -0.148211 -0.917724 0.150318 -3.53363 
286 0.428258 4.31048 -10.2121 -3.419 -4.74313 -3.25317 -0.133916 -0.919172 0.126144 -3.53364 
287 0.68237 6.46837 -11.4877 -2.83156 -4.35994 -2.82093 -0.162319 -1.34526 0.196875 -3.53374 
288 2.58888 4.77983 -11.4901 -2.80054 -3.55705 -2.66196 -0.373098 -0.778241 0.109246 -3.53334 
289 0.604038 6.47666 -8.9342 -2.80722 -4.35347 -2.8425 -0.144804 -1.34586 0.165189 -3.53378 
290 4.48511 3.07104 -11.4889 -3.47679 -2.87909 -2.66767 -0.445626 -0.12064 0.803842 -3.53334 
291 2.33844 2.62706 -10.2128 -3.43326 -3.52689 -2.99667 -0.409751 -0.29219 0.292558 -3.52981 
292 2.3067 2.65543 -7.65896 -3.41484 -3.53033 -3.02406 -0.41369 -0.299982 0.282741 -3.52983 
293 2.53114 4.81134 -8.93608 -2.77505 -3.55761 -2.69111 -0.370537 -0.783041 0.0893111 -3.53335 
294 4.44813 3.12549 -8.93485 -3.45401 -2.87714 -2.69545 -0.459603 -0.140011 0.794227 -3.53335 
295 0.37607 4.31559 -7.65846 -3.39982 -4.74365 -3.27775 -0.118636 -0.919899 0.104937 -3.53365 
296 0.323826 4.32001 -5.10524 -3.38522 -4.74369 -3.29377 -0.102694 -0.920519 0.0842124 -3.53366 
297 0.525593 6.48388 -6.38112 -2.78875 -4.34882 -2.85713 -0.126819 -1.34649 0.13609 -3.5338 
298 2.47294 4.84201 -6.38259 -2.75355 -3.56019 -2.71132 -0.365856 -0.786494 0.0711425 -3.53336 
299 0.447065 6.49002 -3.82835 -2.77528 -4.34563 -2.86591 -0.108528 -1.34706 0.108276 -3.53382 
300 4.41035 3.17939 -6.38136 -3.43338 -2.8791 -2.71431 -0.47134 -0.157362 0.786114 -3.53336 
301 2.27456 2.68334 -5.10555 -3.39803 -3.53515 -3.04225 -0.415882 -0.306979 0.27368 -3.52984 
302 2.24202 2.71078 -2.55243 -3.383 -3.54125 -3.05251 -0.416264 -0.31313 0.265849 -3.52985 
303 2.41431 4.87184 -3.82945 -2.73564 -3.56405 -2.72412 -0.359176 -0.789356 0.0543095 -3.53337 
304 4.37181 3.23273 -3.82822 -3.41519 -2.8837 -2.72568 -0.480913 -0.173638 0.77877 -3.53337 
305 0.271538 4.32373 -2.55227 -3.37538 -4.74347 -3.30291 -0.0862693 -0.921269 0.0656072 -3.53367 
306 0.368476 6.49511 -1.27576 -2.76715 -4.34483 -2.87034 -0.0898092 -1.34781 0.0814677 -3.53383 
307 2.35525 4.90084 -1.27652 -2.72167 -3.56974 -2.73109 -0.350948 -0.792212 0.0376252 -3.53337 
308 4.33252 3.2855 -1.2753 -3.39937 -2.89173 -2.73161 -0.488936 -0.188994 0.77219 -3.53337 