ITEM: TIMESTEP
203
ITEM: NUMBER OF ATOMS
37664
ITEM: BOX BOUNDS ff ff ff
-100 100
-100 100
-156.15 156.15
ITEM: ATOMS id x y z v_peratom_sxx v_peratom_syy v_peratom_szz v_peratom_sxy v_peratom_sxz v_peratom_syz c_atomPE 
1 -0.0106093 -0.00075653 -0.0208297 -5.20386 -5.1758 -9.52877 -0.0478726 0.296623 -0.109121 -3.51534 
2 -0.0124345 -0.000529612 2.53295 -5.18547 -5.16872 -9.50695 -0.0478247 0.296953 -0.106212 -3.51543 
3 -0.0141487 -0.000318419 5.08703 -5.16325 -5.15762 -9.47596 -0.0470674 0.293918 -0.102257 -3.51557 
4 -0.0157511 -0.000104291 7.64153 -5.13689 -5.14223 -9.4353 -0.0456897 0.287991 -0.0972741 -3.51576 
5 -0.0172317 0.000133285 10.1966 -5.10583 -5.122 -9.38381 -0.0438049 0.279838 -0.0912017 -3.51599 
6 -0.018569 0.000416283 12.7523 -5.06922 -5.09603 -9.31958 -0.0415643 0.270272 -0.0839459 -3.51628 
7 -0.0197312 0.000766035 15.309 -5.02574 -5.06291 -9.2398 -0.0391558 0.260155 -0.0754599 -3.51664 
8 -0.0206794 0.00119899 17.8668 -4.97341 -5.02058 -9.14056 -0.0367844 0.250254 -0.0658552 -3.51708 
9 -0.0213739 0.00172057 20.426 -4.90932 -4.96598 -9.01674 -0.0346304 0.241076 -0.0555248 -3.51763 
10 -0.0217805 0.00231866 22.987 -4.82926 -4.89483 -8.86221 -0.0327992 0.232763 -0.0452209 -3.51831 
11 -0.0218754 0.0029595 25.5501 -4.72769 -4.80141 -8.67063 -0.0312868 0.225135 -0.0360047 -3.51915 
12 -0.0216436 0.00358943 28.1157 -4.59808 -4.67898 -8.43731 -0.0299922 0.217915 -0.0290127 -3.52016 
13 -0.0210733 0.00414335 30.6844 -4.43458 -4.52141 -8.16243 -0.0287772 0.211027 -0.0251028 -3.52133 
14 -0.0201477 0.00455667 33.2562 -4.23585 -4.32705 -7.85464 -0.0275278 0.204752 -0.0245764 -3.52259 
15 -0.018838 0.00477413 35.8311 -4.00993 -4.10372 -7.53119 -0.0261733 0.199717 -0.0271831 -3.52382 
16 -0.0170979 0.00475033 38.4088 -3.77285 -3.86721 -7.20993 -0.024656 0.196715 -0.0323941 -3.52489 
17 -0.0148565 0.00444194 40.9888 -3.53592 -3.62855 -6.89659 -0.0228723 0.196535 -0.0397681 -3.52575 
18 -0.0119937 0.00379565 43.571 -3.29995 -3.38773 -6.57796 -0.0206006 0.200385 -0.0491426 -3.52644 
19 -0.0082981 0.00273505 46.1556 -3.0407 -3.11765 -6.21866 -0.0172378 0.209855 -0.060411 -3.52717 
20 -0.00350197 0.00114643 48.7429 -2.67685 -2.72055 -5.78861 -0.00876673 0.221075 -0.0728461 -3.52805 
21 5.95933e-07 -4.11185e-08 51.3317 -1.92148 -1.91814 -4.89702 0.000497815 -0.0116565 0.00385817 -3.53201 
22 4.01304e-07 -1.42881e-06 53.9138 -0.853342 -0.853413 -8.91773 -1.10266e-05 -0.000118803 -6.86407e-05 -3.48167 
23 8.71386e-07 -1.98378e-06 56.3885 1.68509 1.68513 1.875 -9.09902e-05 0.000103985 1.16022e-05 -2.55581 
24 -1.23087e-07 -1.12453e-06 -53.8876 -2.6042 -2.60431 -6.54889 -2.97963e-05 3.5453e-05 -8.47406e-05 -3.40184 
25 1.02659e-07 -1.55837e-06 -51.3239 -2.08205 -2.08781 -5.64609 -0.000771494 -0.0155447 0.00641321 -3.52882 
26 0.00422392 -0.00171359 -48.7483 -2.89816 -2.83752 -6.38361 0.00362834 0.264541 -0.107663 -3.52553 
27 0.00941792 -0.0039392 -46.1688 -3.25128 -3.15748 -6.60331 0.00758133 0.229022 -0.101211 -3.52595 
28 0.0124022 -0.00561357 -43.5887 -3.5252 -3.42389 -6.85824 0.0100459 0.212687 -0.0891882 -3.52553 
29 0.0139694 -0.0068323 -41.0095 -3.76864 -3.66467 -7.13033 0.0121673 0.208164 -0.0762057 -3.52497 
30 0.014627 -0.00766744 -38.4318 -4.00557 -3.89982 -7.41889 0.0138071 0.208973 -0.0635633 -3.5242 
31 0.0146882 -0.00814613 -35.856 -4.23979 -4.13145 -7.72321 0.0146761 0.210353 -0.0526645 -3.5232 
32 0.0143262 -0.00827957 -33.2827 -4.46366 -4.35149 -8.03468 0.0143941 0.209729 -0.0448044 -3.52203 
33 0.013614 -0.00808283 -30.7123 -4.66463 -4.54785 -8.33732 0.012517 0.206561 -0.0410718 -3.52079 
34 0.0125609 -0.00759056 -28.145 -4.83313 -4.71213 -8.61424 0.0086733 0.20218 -0.0422056 -3.5196 
35 0.011155 -0.0068667 -25.5806 -4.9661 -4.8428 -8.85375 0.00282419 0.199109 -0.0482084 -3.51854 
36 0.00940308 -0.00600066 -23.0188 -5.06553 -4.94305 -9.05107 -0.00457932 0.199817 -0.0580522 -3.51764 
37 0.00735195 -0.00508839 -20.4593 -5.13613 -5.01807 -9.20695 -0.0127281 0.20556 -0.0699235 -3.51692 
38 0.00508279 -0.00421041 -17.9016 -5.18353 -5.07316 -9.32548 -0.0207693 0.216061 -0.0818781 -3.51637 
39 0.00269113 -0.00341912 -15.3453 -5.21314 -5.1129 -9.41222 -0.0280564 0.229949 -0.0924175 -3.51595 
40 0.00026666 -0.00273848 -12.7901 -5.22948 -5.14088 -9.47281 -0.0342277 0.245402 -0.100704 -3.51566 
41 -0.00211941 -0.0021709 -10.2357 -5.23606 -5.1598 -9.51234 -0.0391612 0.260645 -0.106482 -3.51546 
42 -0.00441885 -0.00170593 -7.6817 -5.23541 -5.1716 -9.53497 -0.042886 0.274229 -0.109883 -3.51534 
43 -0.00660501 -0.00132718 -5.12802 -5.2292 -5.17765 -9.54387 -0.0455027 0.285118 -0.111225 -3.51529 
44 -0.00866812 -0.00101664 -2.57444 -5.2185 -5.17886 -9.54132 -0.047129 0.292678 -0.110867 -3.51529 
45 0.0835346 2.15932 1.25534 -4.09323 -5.13616 -3.82436 -0.100546 -0.350885 -0.00324984 -3.52912 
46 0.0556381 2.16041 3.80916 -4.07909 -5.13544 -3.80584 -0.0845985 -0.350411 -0.0124416 -3.52914 
47 0.0278531 2.16115 6.36332 -4.06651 -5.13252 -3.77968 -0.0680922 -0.350711 -0.0216246 -3.52917 
48 0.000190039 2.16158 8.91797 -4.05524 -5.1272 -3.74517 -0.0512053 -0.351669 -0.0309565 -3.5292 
49 -0.027331 2.1617 11.4732 -4.04516 -5.11906 -3.70107 -0.0341849 -0.353132 -0.0406015 -3.52924 
50 -0.0546797 2.16153 14.0293 -4.03629 -5.1074 -3.64547 -0.017373 -0.35492 -0.0507913 -3.52929 
51 -0.081816 2.16109 16.5864 -4.02866 -5.09103 -3.57574 -0.00121192 -0.356823 -0.0618877 -3.52935 
52 -0.108693 2.16041 19.1447 -4.02214 -5.06807 -3.48839 0.0137783 -0.35862 -0.0744193 -3.52943 
53 -0.135263 2.15948 21.7046 -4.01596 -5.03559 -3.37915 0.0270515 -0.360098 -0.0890317 -3.52953 
54 -0.161481 2.1583 24.2664 -4.00796 -4.9892 -3.2432 0.0381056 -0.361062 -0.106263 -3.52965 
55 -0.18731 2.15687 26.8306 -3.99348 -4.92267 -3.07605 0.0465619 -0.361339 -0.126067 -3.5298 
56 -0.212723 2.15519 29.3975 -3.96414 -4.82808 -2.87523 0.0522647 -0.360731 -0.147132 -3.53001 
57 -0.237686 2.1533 31.9675 -3.90763 -4.69723 -2.64283 0.055457 -0.358945 -0.166502 -3.53028 
58 -0.262148 2.15124 34.5407 -3.81112 -4.52576 -2.38765 0.0570106 -0.355533 -0.180696 -3.53063 
59 -0.286024 2.14899 37.117 -3.67004 -4.31896 -2.1235 0.0583744 -0.349857 -0.189339 -3.53103 
60 -0.309199 2.14646 39.6958 -3.49357 -4.09099 -1.86116 0.0609077 -0.34125 -0.197362 -3.53143 
61 -0.331545 2.14351 42.2769 -3.29473 -3.85164 -1.60002 0.0651571 -0.3294 -0.210891 -3.53178 
62 -0.352927 2.14004 44.86 -3.08232 -3.59637 -1.32685 0.0702568 -0.313369 -0.236599 -3.53204 
63 -0.373148 2.13623 47.4452 -2.83241 -3.27517 -1.0314 0.0719957 -0.289075 -0.266578 -3.5323 
64 -0.392512 2.13371 50.032 -2.3764 -2.80082 -0.438036 0.0252867 -0.358255 -0.231177 -3.53331 
65 -0.418483 2.1304 52.6263 -1.76616 -2.00395 -0.560183 0.0452843 -0.308612 -0.730624 -3.52454 
66 -0.44812 2.14653 55.1778 6.97766 7.73879 2.43026 0.0332749 -0.597218 1.7697 -3.02528 
67 0.649859 2.05055 -55.162 1.39012 0.843261 -0.676036 -0.188178 -0.0991604 1.20806 -3.26035 
68 0.633027 2.08274 -52.6122 -1.11447 -2.21994 -0.458592 -0.374848 -0.488792 -0.161764 -3.53573 
69 0.607028 2.08678 -50.0319 -2.03175 -2.64469 -0.983601 -0.120111 -0.376611 0.0646883 -3.53407 
70 0.587999 2.08676 -47.4557 -2.80963 -3.15083 -1.40561 -0.128546 -0.294729 0.136461 -3.53283 
71 0.567772 2.08901 -44.8758 -3.26124 -3.51334 -1.55576 -0.0999931 -0.312125 0.184389 -3.53211 
72 0.545876 2.09233 -42.2959 -3.57119 -3.78881 -1.77616 -0.0843678 -0.327354 0.20254 -3.53163 
73 0.522668 2.09615 -39.7171 -3.82167 -4.03444 -2.01608 -0.0777584 -0.340662 0.216216 -3.53118 
74 0.498401 2.10037 -37.1402 -4.02978 -4.26156 -2.26768 -0.0791691 -0.352509 0.227462 -3.53071 
75 0.473267 2.105 -34.5657 -4.19269 -4.46538 -2.52475 -0.0879416 -0.36331 0.232898 -3.53027 
76 0.447402 2.11002 -31.9941 -4.30464 -4.63664 -2.77597 -0.102559 -0.373108 0.228867 -3.52989 
77 0.420891 2.11536 -29.4257 -4.36662 -4.77073 -3.0079 -0.120562 -0.381133 0.214586 -3.52961 
78 0.393801 2.12084 -26.8604 -4.38714 -4.87049 -3.21026 -0.139045 -0.386232 0.192386 -3.52941 
79 0.366211 2.12627 -24.2979 -4.37799 -4.94296 -3.37847 -0.155251 -0.387805 0.165859 -3.52929 
80 0.338225 2.13148 -21.7379 -4.35063 -4.99566 -3.51294 -0.16714 -0.386194 0.138395 -3.52922 
81 0.309966 2.13633 -19.1798 -4.31436 -5.03459 -3.61713 -0.17374 -0.382335 0.112458 -3.52917 
82 0.281548 2.14075 -16.6232 -4.27563 -5.06384 -3.69561 -0.175075 -0.377243 0.0893997 -3.52915 
83 0.253069 2.1447 -14.0677 -4.23839 -5.08606 -3.75293 -0.171812 -0.371744 0.0696432 -3.52913 
84 0.2246 2.14819 -11.5131 -4.20463 -5.10292 -3.79305 -0.164869 -0.366416 0.0529881 -3.52911 
85 0.19619 2.15123 -8.95899 -4.17507 -5.11554 -3.8192 -0.15515 -0.36163 0.0389124 -3.52911 
86 0.167869 2.15384 -6.40528 -4.14966 -5.12471 -3.83386 -0.143395 -0.357604 0.0267925 -3.5291 
87 0.13965 2.15605 -3.85175 -4.12795 -5.13096 -3.83886 -0.130151 -0.354453 0.0160369 -3.5291 
88 0.111539 2.15787 -1.29826 -4.10934 -5.1347 -3.83545 -0.115787 -0.352216 0.0061502 -3.52911 
89 0.205705 4.32591 -0.0210951 -3.42848 -4.75264 -3.2956 -0.126991 -0.853712 0.053013 -3.53375 
90 0.273746 6.49794 1.25629 -2.8026 -4.36931 -2.86067 -0.125949 -1.2989 0.0714619 -3.53392 
91 2.19593 2.73501 -0.0161162 -3.42938 -3.52282 -3.08335 -0.457311 -0.25642 0.27323 -3.52978 
92 2.16094 2.76164 2.53749 -3.40676 -3.53896 -3.0699 -0.451668 -0.261756 0.26658 -3.52979 
93 2.28019 4.92604 1.25965 -2.75129 -3.56292 -2.75577 -0.380125 -0.74411 0.0507538 -3.53336 
94 4.27735 3.33352 1.26508 -3.43992 -2.89032 -2.7508 -0.52867 -0.166599 0.767137 -3.53332 
95 0.151572 4.32821 2.5324 -3.41851 -4.75585 -3.28419 -0.106578 -0.853568 0.0348207 -3.53376 
96 0.0975464 4.32981 5.08616 -3.41186 -4.75865 -3.26692 -0.0855946 -0.853917 0.0163582 -3.53376 
97 0.193423 6.50075 3.80961 -2.79801 -4.37433 -2.84933 -0.102425 -1.29957 0.0450805 -3.53392 
98 2.21873 4.95335 3.81322 -2.73648 -3.57769 -2.74081 -0.364929 -0.746375 0.0354254 -3.53336 
99 0.113218 6.5025 6.36321 -2.79724 -4.3803 -2.83344 -0.0784363 -1.30065 0.0180339 -3.53391 
100 4.23506 3.38533 3.81862 -3.41774 -2.91003 -2.73658 -0.530004 -0.180705 0.761901 -3.53333 
101 2.12571 2.7878 5.09135 -3.38581 -3.55606 -3.04997 -0.444042 -0.267844 0.259594 -3.52979 
102 2.09026 2.8135 7.64557 -3.36637 -3.57405 -3.02319 -0.434407 -0.274728 0.252101 -3.52979 
103 2.15704 4.97983 6.36708 -2.7246 -3.59356 -2.72 -0.347861 -0.74923 0.019315 -3.53337 
104 4.1922 3.43655 6.37243 -3.3974 -2.93196 -2.71646 -0.529043 -0.195449 0.756351 -3.53334 
105 0.0436447 4.33072 7.64031 -3.40834 -4.76103 -3.24339 -0.0641203 -0.854715 -0.00270602 -3.53376 
106 -0.0101098 4.33096 10.195 -3.40797 -4.76289 -3.21281 -0.0422959 -0.855905 -0.0227108 -3.53376 
107 0.033162 6.5032 8.91723 -2.80036 -4.38725 -2.81254 -0.0540465 -1.30214 -0.0101282 -3.53389 
108 2.09515 5.00547 8.92136 -2.7157 -3.6105 -2.69279 -0.328889 -0.752752 0.00208678 -3.53337 
109 -0.0467103 6.50287 11.4718 -2.80767 -4.39525 -2.78582 -0.0293914 -1.30405 -0.0399003 -3.53387 
110 4.14879 3.48719 8.92664 -3.37893 -2.95613 -2.68988 -0.525659 -0.211042 0.750268 -3.53335 
111 2.0546 2.83873 10.2003 -3.34845 -3.59279 -2.98874 -0.422702 -0.282431 0.24394 -3.52979 
112 2.01876 2.86349 12.7557 -3.33217 -3.61203 -2.94533 -0.408843 -0.290991 0.23492 -3.52979 
113 2.03307 5.03026 11.4762 -2.70998 -3.62841 -2.65824 -0.307961 -0.757028 -0.0166327 -3.53337 
114 4.10483 3.53721 11.4814 -3.36246 -2.98256 -2.6559 -0.519654 -0.227711 0.743401 -3.53335 
115 -0.063686 4.33054 12.7503 -3.41099 -4.76402 -3.17391 -0.020351 -0.857397 -0.044051 -3.53376 
116 -0.117043 4.32948 15.3065 -3.4178 -4.76396 -3.12486 0.00138047 -0.859065 -0.0672251 -3.53375 
117 -0.126356 6.50152 14.027 -2.81968 -4.40423 -2.75204 -0.00469417 -1.30635 -0.0718667 -3.53383 
118 1.97084 5.05418 14.0318 -2.70784 -3.64703 -2.61496 -0.285022 -0.762183 -0.0373025 -3.53336 
119 -0.205724 6.49914 16.5831 -2.83702 -4.41394 -2.70944 0.0197311 -1.30895 -0.106731 -3.53379 
120 4.06037 3.58661 14.0368 -3.34823 -3.01129 -2.6131 -0.510768 -0.245746 0.735418 -3.53335 
121 1.98277 2.88777 15.3119 -3.3177 -3.63134 -2.89107 -0.392727 -0.300502 0.224756 -3.52978 
122 1.94666 2.91156 17.8693 -3.30519 -3.64991 -2.82345 -0.374235 -0.311154 0.213019 -3.52976 
123 1.90851 5.07722 16.5882 -2.70977 -3.66589 -2.56101 -0.26002 -0.768399 -0.0605049 -3.53335 
124 4.01541 3.63535 16.5931 -3.33652 -3.0422 -2.55958 -0.49868 -0.265546 0.725846 -3.53335 
125 -0.170133 4.3278 17.8637 -3.42885 -4.76182 -3.06314 0.0224621 -0.86073 -0.092859 -3.53375 
126 -0.222899 4.3255 20.4223 -3.44439 -4.75598 -2.98543 0.0423783 -0.862153 -0.121661 -3.53375 
127 -0.284754 6.49575 19.1402 -2.86031 -4.42365 -2.65551 0.0434959 -1.31166 -0.1453 -3.53374 
128 1.8461 5.09936 19.1458 -2.71623 -3.68406 -2.49386 -0.23293 -0.77593 -0.0869472 -3.53334 
129 -0.363379 6.49137 21.6987 -2.88986 -4.43181 -2.58687 0.0661715 -1.31416 -0.188362 -3.53368 
130 3.97001 3.6834 19.1506 -3.32747 -3.07489 -2.49291 -0.483034 -0.287635 0.714028 -3.53335 
131 1.91047 2.93486 20.4279 -3.29445 -3.66639 -2.73925 -0.353242 -0.323243 0.199123 -3.52974 
132 1.87426 2.95763 22.9883 -3.28453 -3.67843 -2.63471 -0.329663 -0.337094 0.1824 -3.52971 
133 1.78369 5.12057 21.7049 -2.72738 -3.69993 -2.41043 -0.203789 -0.785088 -0.117375 -3.53332 
134 3.92419 3.73072 21.7094 -3.32087 -3.10837 -2.41018 -0.463509 -0.312616 0.699138 -3.53333 
135 -0.275283 4.3226 22.9825 -3.46396 -4.74361 -2.88759 0.0605709 -0.863046 -0.154237 -3.53375 
136 -0.327229 4.31913 25.5447 -3.48551 -4.72011 -2.76485 0.0764748 -0.863102 -0.190676 -3.53377 
137 -0.441525 6.48602 24.2589 -2.92512 -4.43549 -2.4991 0.0873251 -1.31594 -0.236381 -3.53362 
138 1.72132 5.14084 24.2657 -2.74254 -3.71086 -2.30715 -0.172794 -0.796162 -0.15232 -3.53329 
139 -0.51912 6.47976 26.8211 -2.96377 -4.42961 -2.38677 0.10652 -1.31641 -0.288921 -3.53357 
140 3.878 3.77727 24.27 -3.31564 -3.14062 -2.30806 -0.439972 -0.340981 0.680317 -3.53331 
141 1.83806 2.97986 25.5508 -3.27296 -3.68216 -2.5058 -0.303599 -0.352825 0.162388 -3.52967 
142 1.80197 3.00156 28.1157 -3.2547 -3.67146 -2.34898 -0.275601 -0.369868 0.1394 -3.52962 
143 1.65906 5.16018 26.8287 -2.75938 -3.71265 -2.18042 -0.140495 -0.809199 -0.191583 -3.53326 
144 3.83153 3.82302 26.8328 -3.30915 -3.16787 -2.18311 -0.412743 -0.372677 0.657027 -3.53327 
145 -0.37869 4.31512 28.1094 -3.50401 -4.67853 -2.61246 0.0895438 -0.862028 -0.229861 -3.53381 
146 -0.429621 4.31069 30.6769 -3.50982 -4.60922 -2.42726 0.0993116 -0.859519 -0.268718 -3.5339 
147 -0.5961 6.47273 29.3858 -3.00032 -4.40613 -2.24406 0.123234 -1.31495 -0.343805 -3.53354 
148 1.597 5.17866 29.3943 -2.77261 -3.69896 -2.02718 -0.1081 -0.823548 -0.233389 -3.53321 
149 -0.672402 6.46514 31.9535 -3.02434 -4.35321 -2.06643 0.136729 -1.3111 -0.396347 -3.53358 
150 3.78491 3.868 29.398 -3.29616 -3.18367 -2.03219 -0.382971 -0.406359 0.629734 -3.53322 
151 1.76608 3.02278 30.6835 -3.221 -3.63735 -2.16256 -0.247039 -0.386333 0.115364 -3.52958 
152 1.73056 3.04363 33.2545 -3.15928 -3.56855 -1.94841 -0.220285 -0.398695 0.0943041 -3.52958 
153 1.53528 5.19647 31.9629 -2.77242 -3.66068 -1.84596 -0.0777816 -0.837122 -0.273444 -3.53317 
154 3.73834 3.9123 31.9662 -3.26739 -3.17778 -1.85336 -0.352947 -0.438509 0.600834 -3.53317 
155 -0.479969 4.30598 33.2476 -3.48799 -4.50087 -2.2104 0.105607 -0.855081 -0.302236 -3.53407 
156 -0.529643 4.30118 35.8217 -3.4218 -4.34467 -1.97028 0.108944 -0.847756 -0.325954 -3.53434 
157 -0.747956 6.45735 34.5245 -3.01921 -4.2556 -1.85413 0.146093 -1.30426 -0.439732 -3.53371 
158 1.47409 5.21391 34.5347 -2.74352 -3.5858 -1.6384 -0.0525767 -0.845762 -0.304952 -3.53315 
159 -0.822639 6.44967 37.0991 -2.96493 -4.09892 -1.61684 0.150825 -1.29313 -0.468477 -3.53398 
160 3.69216 3.9561 34.5377 -3.2086 -3.13613 -1.64765 -0.325933 -0.46335 0.575141 -3.53315 
161 1.69564 3.06427 35.8288 -3.05647 -3.455 -1.71336 -0.198112 -0.403082 0.0807544 -3.52965 
162 1.66152 3.08476 38.406 -2.90788 -3.2948 -1.46761 -0.181848 -0.399014 0.0745661 -3.52982 
163 1.41374 5.23132 37.1097 -2.66804 -3.46173 -1.41106 -0.0353363 -0.844312 -0.322006 -3.53322 
164 3.64677 3.99963 37.1124 -3.10277 -3.04444 -1.42146 -0.304925 -0.475524 0.55788 -3.53322 
165 -0.578499 4.2963 38.3989 -3.30358 -4.14286 -1.72142 0.11074 -0.836287 -0.341403 -3.53469 
166 -0.626369 4.29115 40.9786 -3.14208 -3.91084 -1.47535 0.11274 -0.820036 -0.357577 -3.53503 
167 -0.89627 6.44217 39.6768 -2.85123 -3.88266 -1.37357 0.151737 -1.27607 -0.485746 -3.53435 
168 1.35449 5.24886 39.6878 -2.53662 -3.28374 -1.17528 -0.0268008 -0.831601 -0.327653 -3.5334 
169 -0.968686 6.43455 42.2568 -2.68747 -3.62602 -1.14093 0.150742 -1.25319 -0.504295 -3.5347 
170 3.60247 4.04303 39.6902 -2.94076 -2.89761 -1.1868 -0.290671 -0.476162 0.548043 -3.5334 
171 1.62827 3.10499 40.9858 -2.7227 -3.09641 -1.21833 -0.170153 -0.391503 0.0681473 -3.53006 
172 1.5959 3.12483 43.5675 -2.51215 -2.86704 -0.962775 -0.161204 -0.386612 0.0536991 -3.53034 
173 1.29645 5.26638 42.268 -2.35658 -3.06047 -0.940695 -0.0247776 -0.814108 -0.335861 -3.53366 
174 3.55924 4.08619 42.2701 -2.73094 -2.70379 -0.955233 -0.281541 -0.47471 0.535507 -3.53365 
175 -0.673139 4.28552 43.5601 -2.94987 -3.65782 -1.23047 0.115408 -0.799671 -0.383077 -3.53532 
176 -0.718809 4.27936 46.1432 -2.74013 -3.37927 -0.965589 0.117204 -0.77565 -0.423724 -3.53558 
177 -1.03989 6.42659 44.838 -2.48107 -3.33454 -0.924278 0.148098 -1.22699 -0.529552 -3.53505 
178 1.23956 5.28372 44.8498 -2.13635 -2.79608 -0.708404 -0.0287191 -0.800124 -0.357572 -3.53398 
179 -1.11016 6.41864 47.4196 -2.23907 -2.99472 -0.732503 0.143967 -1.2008 -0.552219 -3.5354 
180 3.51698 4.12906 44.8515 -2.48085 -2.47032 -0.732359 -0.276018 -0.479425 0.512502 -3.53395 
181 1.56436 3.14424 46.1509 -2.28406 -2.60728 -0.68349 -0.156451 -0.390524 0.0242021 -3.53062 
182 1.53387 3.16372 48.7361 -2.03803 -2.33867 -0.312939 -0.169358 -0.400074 -0.011299 -3.53028 
183 1.18352 5.30095 47.4324 -1.8873 -2.48902 -0.473375 -0.0504672 -0.800431 -0.403016 -3.53423 
184 3.47553 4.17172 47.4335 -2.19172 -2.20678 -0.524147 -0.276896 -0.49945 0.467773 -3.53416 
185 -0.763397 4.27373 48.7278 -2.54634 -3.03917 -0.612273 0.106022 -0.735591 -0.442698 -3.53535 
186 -0.811621 4.26877 51.3169 -1.98913 -2.34785 0.328633 0.0837416 -0.850014 -0.652446 -3.538 
187 -1.17889 6.41384 50.0002 -2.01511 -2.54178 -0.299892 0.0524499 -1.21835 -0.631673 -3.53583 
188 1.12775 5.31799 50.0156 -1.55546 -2.06075 0.00571277 -0.0988937 -0.903564 -0.579699 -3.53493 
189 -1.25707 6.40546 52.5877 -1.61282 -2.48639 0.643707 0.176663 -1.31765 -0.611841 -3.5328 
190 3.43505 4.21346 50.0156 -1.74912 -1.84241 -0.0283946 -0.301887 -0.632718 0.321637 -3.53496 
191 1.50027 3.18358 51.3264 -1.43152 -1.69938 0.664543 -0.172774 -0.556872 -0.131197 -3.53267 
192 1.46587 3.20964 53.9052 0.0264476 0.953677 -0.796752 0.56615 -0.561351 0.138442 -3.37565 
193 1.06597 5.33731 52.6041 -1.24953 -1.89896 0.440673 -0.237218 -0.800994 -0.410466 -3.52777 
194 3.38747 4.26008 52.6041 -1.41012 -1.71473 0.388983 -0.390247 -0.638936 0.588009 -3.52745 
195 -0.866323 4.2769 53.8949 -0.0503647 -0.206659 -1.1798 0.0795436 -1.26174 1.02744 -3.38132 
196 1.3298 4.1174 -56.3442 5.06956 2.90504 1.60221 -1.25505 -0.273844 0.110338 -2.79034 
197 -1.33605 6.40133 55.1665 4.17883 2.79817 1.28959 0.319726 -1.52342 0.198602 -3.26107 
198 1.00488 5.36129 55.1754 5.64357 6.63235 2.70852 0.370534 -0.63628 -0.0317172 -3.15047 
199 1.98371 6.26223 -55.1334 6.94037 9.11546 2.93013 0.134055 -0.847993 -0.525963 -3.02309 
200 3.34328 4.30996 55.1754 5.53086 7.35917 2.86983 0.118454 -0.278109 0.56317 -3.15116 
201 2.87095 2.09325 -56.362 4.04258 6.00656 1.88172 -3.16464 0.252973 0.342093 -2.79939 
202 2.84551 2.1252 -53.8874 0.165677 0.76369 -3.02662 -0.981816 -0.732724 -0.162258 -3.51266 
203 3.53831 4.21674 -55.1525 6.03175 6.27403 1.75879 0.302407 -1.21926 -0.0444458 -3.14331 
204 5.07312 2.13635 -55.1525 6.04998 7.039 2.00263 0.445971 -0.52804 0.0807147 -3.14511 
205 1.29262 4.16451 -53.8815 0.86104 -0.347171 -3.67607 -0.408367 -0.573953 0.838969 -3.51412 
206 1.24176 4.17585 -51.3147 -1.29181 -1.91646 -0.414821 -0.214944 -0.889001 0.219846 -3.53918 
207 1.90264 6.26187 -52.5941 -0.919645 -1.45687 -0.572518 -0.184232 -1.16826 0.820056 -3.52797 
208 3.4607 4.22944 -52.6036 -0.751579 -0.927027 0.0930087 -0.677615 -0.496757 0.190877 -3.53023 
209 1.82403 6.27282 -50.0101 -1.65768 -2.38347 -0.334327 -0.166188 -1.22379 0.43338 -3.53689 
210 5.01221 2.17771 -52.6036 -1.34385 -0.350243 0.0522055 -0.502777 0.0187031 0.991214 -3.52956 
211 2.80522 2.14769 -51.32 -1.10704 -0.951884 -0.158425 -0.280077 -0.342317 0.265116 -3.53425 
212 2.77505 2.17379 -48.7418 -2.07908 -1.88954 -0.681462 -0.301585 -0.0916425 0.361902 -3.53078 
213 3.40036 4.25787 -50.02 -1.47995 -1.69532 -0.229884 -0.42164 -0.647421 0.304612 -3.53486 
214 4.971 2.23184 -50.02 -1.89885 -1.30344 -0.192572 -0.302349 0.0771676 0.840733 -3.53492 
215 1.19291 4.18004 -48.7366 -2.29819 -2.82895 -0.920039 -0.194031 -0.736779 0.27462 -3.53639 
216 1.14851 4.18511 -46.1569 -2.8031 -3.24027 -1.12663 -0.172503 -0.757246 0.394486 -3.53608 
217 1.75476 6.27843 -47.4323 -2.22638 -2.86954 -0.813383 -0.227812 -1.17625 0.546427 -3.53595 
218 3.35041 4.28653 -47.4432 -1.98936 -2.2253 -0.708921 -0.305462 -0.544685 0.361793 -3.53423 
219 1.68473 6.28961 -44.8527 -2.62918 -3.22093 -0.995332 -0.217635 -1.19216 0.604343 -3.53539 
220 4.93963 2.28297 -47.4421 -2.41636 -1.80049 -0.66418 -0.210512 0.194074 0.867158 -3.53424 
221 2.74986 2.19974 -46.1622 -2.52098 -2.2839 -0.885452 -0.230506 -0.0680751 0.40582 -3.53076 
222 2.72474 2.22729 -43.5818 -2.86224 -2.58557 -1.09807 -0.210368 -0.0765647 0.422309 -3.53036 
223 3.30078 4.31785 -44.8639 -2.376 -2.57249 -0.85558 -0.265012 -0.554859 0.391601 -3.53394 
224 4.91026 2.33485 -44.8624 -2.80501 -2.14124 -0.83659 -0.171464 0.210429 0.89561 -3.53389 
225 1.10284 4.1927 -43.5768 -3.16471 -3.54904 -1.35228 -0.155782 -0.778523 0.422821 -3.53552 
226 1.05577 4.20119 -40.9975 -3.44041 -3.81422 -1.58707 -0.150631 -0.80159 0.434702 -3.53504 
227 1.61359 6.30249 -42.2733 -2.93132 -3.51746 -1.21837 -0.218703 -1.21998 0.622661 -3.53487 
228 3.25074 4.35079 -42.2842 -2.67203 -2.85377 -1.05767 -0.247763 -0.571534 0.406526 -3.53359 
229 1.54092 6.31623 -39.6952 -3.15412 -3.77521 -1.45744 -0.228447 -1.2487 0.630536 -3.53439 
230 4.8812 2.38791 -42.2825 -3.11315 -2.40761 -1.04324 -0.158901 0.207408 0.919016 -3.53354 
231 2.69885 2.25583 -41.0021 -3.13173 -2.8325 -1.32564 -0.204958 -0.08549 0.436831 -3.53003 
232 2.67208 2.28525 -38.424 -3.35249 -3.03609 -1.56257 -0.208747 -0.0917083 0.450678 -3.52976 
233 3.19987 4.38499 -39.7056 -2.90199 -3.08076 -1.28246 -0.242988 -0.587049 0.416612 -3.5333 
234 4.85172 2.44219 -39.7036 -3.36209 -2.61205 -1.26701 -0.159254 0.202681 0.941131 -3.53325 
235 1.00728 4.21023 -38.4197 -3.6508 -4.04915 -1.83063 -0.15531 -0.8232 0.441833 -3.5346 
236 0.957487 4.21979 -35.8444 -3.79763 -4.25031 -2.07823 -0.168107 -0.841713 0.442238 -3.5342 
237 1.46663 6.33072 -37.1192 -3.30084 -3.99028 -1.70397 -0.244609 -1.27343 0.630026 -3.53396 
238 3.14808 4.42038 -37.129 -3.07011 -3.25304 -1.5154 -0.248955 -0.6021 0.419767 -3.53309 
239 1.39089 6.346 -34.5463 -3.37162 -4.15178 -1.94426 -0.263202 -1.29261 0.615304 -3.53364 
240 4.82172 2.49771 -37.1268 -3.55521 -2.75785 -1.49746 -0.171155 0.195948 0.95676 -3.53305 
241 2.64455 2.31553 -35.8481 -3.52638 -3.195 -1.80278 -0.221818 -0.0988831 0.459231 -3.52956 
242 2.6164 2.34658 -33.2751 -3.64931 -3.30642 -2.03718 -0.244482 -0.111354 0.45772 -3.52946 
243 3.0954 4.45685 -34.5552 -3.17474 -3.36906 -1.74361 -0.265465 -0.620462 0.409773 -3.53299 
244 4.79126 2.55434 -34.5527 -3.68934 -2.84657 -1.72335 -0.19499 0.180776 0.959874 -3.53294 
245 0.906575 4.22989 -33.272 -3.87915 -4.40897 -2.31861 -0.186054 -0.85659 0.431019 -3.53389 
246 0.854712 4.24039 -30.7029 -3.90156 -4.52292 -2.53805 -0.205518 -0.867473 0.406437 -3.5337 
247 1.3139 6.36189 -31.977 -3.37624 -4.2581 -2.16184 -0.280295 -1.30606 0.583372 -3.53347 
248 3.04186 4.49408 -31.9847 -3.22029 -3.43635 -1.95486 -0.290624 -0.642907 0.38484 -3.53298 
249 1.23589 6.37798 -29.4111 -3.33413 -4.31945 -2.34543 -0.293204 -1.31384 0.537477 -3.53341 
250 4.76031 2.61176 -31.9818 -3.76748 -2.88738 -1.93328 -0.22912 0.153949 0.949576 -3.53293 
251 2.58761 2.37818 -30.7051 -3.72208 -3.37481 -2.25519 -0.275002 -0.129972 0.445355 -3.52943 
252 2.55814 2.41003 -28.1384 -3.7524 -3.41144 -2.4484 -0.309742 -0.151987 0.425335 -3.52945 
253 2.98738 4.53159 -29.4173 -3.2192 -3.46975 -2.14085 -0.320528 -0.666503 0.349249 -3.53303 
254 4.72865 2.6696 -29.4141 -3.80011 -2.89566 -2.11913 -0.269641 0.118031 0.9299 -3.53296 
255 0.802052 4.251 -28.1372 -3.87958 -4.59881 -2.72666 -0.223074 -0.873993 0.371377 -3.53361 
256 0.748748 4.26141 -25.5744 -3.83034 -4.64708 -2.8809 -0.236083 -0.876366 0.330805 -3.53358 
257 1.15708 6.39378 -26.8483 -3.26601 -4.35012 -2.4919 -0.300407 -1.31659 0.483941 -3.53344 
258 2.93194 4.56893 -26.853 -3.18671 -3.48367 -2.29799 -0.350604 -0.687859 0.309173 -3.53309 
259 1.07766 6.40889 -24.2881 -3.18852 -4.36258 -2.60417 -0.30132 -1.31581 0.428727 -3.53351 
260 4.6961 2.72748 -26.8494 -3.79989 -2.88624 -2.27708 -0.312017 0.0781264 0.90583 -3.53302 
261 2.52791 2.44182 -25.5745 -3.75119 -3.42879 -2.61237 -0.344623 -0.173817 0.401944 -3.5295 
262 2.49694 2.47335 -23.0132 -3.72921 -3.43668 -2.74637 -0.376386 -0.19292 0.378605 -3.52955 
263 2.87558 4.60573 -24.2914 -3.13664 -3.48841 -2.42624 -0.37715 -0.705016 0.269508 -3.53314 
264 4.6625 2.78515 -24.2874 -3.77825 -2.86998 -2.40681 -0.352589 0.0388632 0.881225 -3.53307 
265 0.694958 4.27134 -23.0141 -3.76863 -4.6775 -3.00239 -0.243069 -0.875589 0.28931 -3.5336 
266 0.640834 4.28059 -20.4558 -3.70491 -4.69721 -3.09551 -0.243767 -0.872934 0.250016 -3.53363 
267 0.997803 6.42302 -21.7299 -3.11256 -4.36557 -2.688 -0.296212 -1.31315 0.375897 -3.53359 
268 2.81838 4.64177 -21.7319 -3.07958 -3.49011 -2.52779 -0.398086 -0.717606 0.233098 -3.53319 
269 0.917652 6.43601 -19.1734 -3.04398 -4.36443 -2.74946 -0.285961 -1.30986 0.327535 -3.53367 
270 4.62784 2.84242 -21.7275 -3.74428 -2.85362 -2.51023 -0.389108 0.00317173 0.858483 -3.53312 
271 2.46527 2.50446 -20.454 -3.69545 -3.44129 -2.85226 -0.40314 -0.208232 0.357397 -3.52959 
272 2.43299 2.53508 -17.8964 -3.65647 -3.44592 -2.93334 -0.424263 -0.219814 0.339232 -3.52963 
273 2.76045 4.67694 -19.1741 -3.02252 -3.49189 -2.606 -0.412807 -0.726223 0.201102 -3.53323 
274 4.59215 2.8992 -19.1695 -3.70452 -2.84064 -2.59048 -0.420603 -0.0277211 0.838786 -3.53316 
275 0.586499 4.28905 -17.8991 -3.64539 -4.71072 -3.16535 -0.238817 -0.869462 0.214512 -3.53366 
276 0.532052 4.29669 -15.3435 -3.59307 -4.72064 -3.2166 -0.229307 -0.865868 0.183217 -3.53368 
277 0.837308 6.4478 -16.618 -2.98516 -4.36209 -2.79386 -0.271699 -1.3067 0.284257 -3.53374 
278 2.7019 4.71119 -16.6178 -2.96943 -3.4951 -2.66458 -0.421649 -0.731804 0.173601 -3.53326 
279 0.756843 6.45838 -14.0635 -2.93646 -4.36003 -2.82532 -0.254533 -1.304 0.24579 -3.5338 
280 4.55548 2.95543 -16.6129 -3.66331 -2.83245 -2.65107 -0.446979 -0.053794 0.822459 -3.53319 
281 2.40019 2.56516 -15.3403 -3.6166 -3.45198 -2.99342 -0.439981 -0.228316 0.324227 -3.52967 
282 2.36695 2.59472 -12.7851 -3.57829 -3.45989 -3.0362 -0.450938 -0.234587 0.31203 -3.5297 
283 2.6428 4.74451 -14.0625 -2.9221 -3.50014 -2.70707 -0.425381 -0.735272 0.150091 -3.53329 
284 4.51792 3.01111 -14.0575 -3.62322 -2.82929 -2.69539 -0.468627 -0.0756903 0.809298 -3.53322 
285 0.477561 4.3035 -12.7889 -3.54887 -4.7284 -3.25314 -0.216386 -0.862543 0.155832 -3.53371 
286 0.423077 4.3095 -10.2348 -3.51255 -4.73478 -3.27794 -0.201046 -0.859677 0.131701 -3.53372 
287 0.676309 6.46778 -11.5096 -2.89717 -4.35886 -2.84686 -0.235379 -1.30188 0.211411 -3.53384 
288 2.58325 4.77692 -11.508 -2.88097 -3.50699 -2.7365 -0.424865 -0.7374 0.129812 -3.53331 
289 0.595747 6.47602 -8.95611 -2.86614 -4.35882 -2.86063 -0.214904 -1.30033 0.180237 -3.53388 
290 4.47956 3.06622 -11.5028 -3.58558 -2.83081 -2.72643 -0.48613 -0.0943156 0.798815 -3.53325 
291 2.33334 2.62376 -10.2307 -3.54272 -3.46962 -3.06493 -0.457895 -0.239446 0.302077 -3.52972 
292 2.2994 2.6523 -7.67673 -3.51024 -3.48097 -3.08227 -0.461541 -0.243588 0.29375 -3.52974 
293 2.52329 4.80844 -8.95405 -2.84577 -3.51551 -2.75537 -0.42088 -0.738789 0.111946 -3.53332 
294 4.44044 3.12078 -8.94874 -3.55092 -2.83645 -2.74665 -0.500084 -0.110596 0.790424 -3.53327 
295 0.368631 4.31472 -7.68116 -3.48331 -4.74019 -3.29324 -0.184032 -0.857349 0.110051 -3.53373 
296 0.314245 4.31919 -5.12775 -3.46016 -4.74488 -3.30062 -0.16584 -0.855584 0.0901361 -3.53374 
297 0.515185 6.48314 -6.40292 -2.84216 -4.35991 -2.8681 -0.193539 -1.29931 0.151391 -3.5339 
298 2.46297 4.8391 -6.40046 -2.81586 -3.52548 -2.76557 -0.414044 -0.739882 0.0957255 -3.53334 
299 0.43465 6.48915 -3.84987 -2.82414 -4.36207 -2.87024 -0.171529 -1.29875 0.124082 -3.53391 
300 4.40062 3.17478 -6.39508 -3.51928 -2.84565 -2.75799 -0.510996 -0.125358 0.78354 -3.53328 
301 2.26518 2.68035 -5.12309 -3.48075 -3.49372 -3.09023 -0.462427 -0.247556 0.286474 -3.52976 
302 2.23068 2.70791 -2.5696 -3.45393 -3.50771 -3.09029 -0.460937 -0.251743 0.279764 -3.52977 
303 2.40233 4.86892 -3.84707 -2.79055 -3.53677 -2.76849 -0.404801 -0.740996 0.0804785 -3.53335 
304 4.36015 3.22825 -3.84164 -3.49043 -2.85793 -2.76188 -0.519248 -0.139279 0.77764 -3.5333 
305 0.259932 4.32291 -2.57444 -3.44215 -4.749 -3.30118 -0.146773 -0.854376 0.0713042 -3.53375 
306 0.354163 6.49408 -1.29683 -2.81117 -4.36522 -2.86766 -0.148986 -1.29862 0.0976302 -3.53392 
307 2.3414 4.89789 -1.29374 -2.7692 -3.54927 -2.76505 -0.393439 -0.742353 0.0656424 -3.53335 
308 4.31906 3.28116 -1.2883 -3.46408 -2.87291 -2.7593 -0.525095 -0.152892 0.77229 -3.53331 
309 2.42449 7.0897 -0.0167333 -2.23264 -3.35968 -2.43129 -0.350574 -1.15964 -0.147434 -3.53293 
310 0.422262 8.66846 -0.0193046 -2.26783 -4.05143 -2.50171 -0.145253 -1.69899 0.107882 -3.53366 
311 0.315567 8.67284 2.53352 -2.26369 -4.05676 -2.49426 -0.120066 -1.70007 0.0742819 -3.53365 
312 0.464087 10.8453 1.25789 -1.74096 -3.77298 -2.1569 -0.139855 -2.04925 0.10606 -3.53304 