ITEM: TIMESTEP
203
ITEM: NUMBER OF ATOMS
37664
ITEM: BOX BOUNDS ff ff ff
-100 100
-100 100
-156.15 156.15
ITEM: ATOMS id x y z v_peratom_sxx v_peratom_syy v_peratom_szz v_peratom_sxy v_peratom_sxz v_peratom_syz c_atomPE 
1 -0.0046192 -0.001004 -0.00682745 -5.18197 -5.168 -9.53627 -0.0146794 0.0912695 -0.058166 -3.51529 
2 -0.00543735 -0.000853347 2.54651 -5.17177 -5.16335 -9.52443 -0.0150004 0.0917174 -0.0573493 -3.51534 
3 -0.00618482 -0.000703337 5.10003 -5.15811 -5.15495 -9.50325 -0.0150494 0.0912404 -0.055757 -3.51543 
4 -0.00685384 -0.000541093 7.65386 -5.14075 -5.14254 -9.4721 -0.0149284 0.0901144 -0.0533767 -3.51557 
5 -0.00743579 -0.000354337 10.2082 -5.11906 -5.12551 -9.42962 -0.0147399 0.0886432 -0.0501943 -3.51576 
6 -0.00792195 -0.000132932 12.7631 -5.09197 -5.10279 -9.37355 -0.0145731 0.08708 -0.0462402 -3.51602 
7 -0.00830495 0.000129085 15.3189 -5.05777 -5.07274 -9.30068 -0.0144879 0.085566 -0.0416363 -3.51635 
8 -0.00857998 0.000431436 17.8758 -5.01403 -5.03299 -9.20674 -0.0145006 0.0841117 -0.0366243 -3.51678 
9 -0.00874514 0.000766248 20.434 -4.95742 -4.98021 -9.08646 -0.0145801 0.0826329 -0.0315566 -3.51732 
10 -0.00880044 0.00111803 22.9941 -4.88355 -4.90998 -8.9338 -0.0146597 0.081029 -0.0268454 -3.518 
11 -0.00874587 0.00146523 25.5563 -4.78687 -4.81669 -8.7427 -0.0146606 0.0792627 -0.0228869 -3.51885 
12 -0.00857947 0.00178291 28.1212 -4.66104 -4.69384 -8.5088 -0.0145176 0.0774044 -0.0199867 -3.51987 
13 -0.00829579 0.00204601 30.689 -4.50033 -4.53555 -8.23248 -0.0141975 0.075628 -0.0183053 -3.52106 
14 -0.00788516 0.00223213 33.2601 -4.30335 -4.34028 -7.92252 -0.0137006 0.0741726 -0.017841 -3.52234 
15 -0.00733311 0.00232259 35.8343 -4.07812 -4.11597 -7.59634 -0.0130491 0.073298 -0.0184714 -3.5236 
16 -0.00662003 0.00230085 38.4113 -3.84073 -3.87861 -7.27215 -0.0122637 0.0732226 -0.0200485 -3.52469 
17 -0.00571977 0.00214844 40.9908 -3.6027 -3.63964 -6.95615 -0.0113359 0.0740919 -0.022505 -3.52557 
18 -0.00459039 0.00183919 43.5724 -3.36497 -3.39971 -6.63543 -0.0101897 0.0762004 -0.0259195 -3.52628 
19 -0.00315763 0.00133254 46.1565 -3.10266 -3.13291 -6.27371 -0.00855618 0.0800477 -0.0304175 -3.52702 
20 -0.00132873 0.000565383 48.7433 -2.72644 -2.74351 -5.83747 -0.0045579 0.0839876 -0.0358897 -3.5279 
21 5.95933e-07 -4.11185e-08 51.3317 -1.92215 -1.92081 -4.91182 0.000305703 -0.00440218 0.00191263 -3.53203 
22 4.01304e-07 -1.42881e-06 53.9138 -0.852733 -0.852765 -8.9179 -6.67645e-06 -7.88839e-05 -7.33529e-05 -3.48168 
23 8.71386e-07 -1.98378e-06 56.3885 1.68532 1.68534 1.87584 -5.72384e-05 6.76873e-05 6.27933e-06 -2.55581 
24 -1.23087e-07 -1.12453e-06 -53.8876 -2.60536 -2.60545 -6.54904 -2.51894e-05 2.28348e-05 -5.70905e-05 -3.40184 
25 1.02659e-07 -1.55837e-06 -51.3239 -2.08061 -2.08308 -5.60577 -0.000511396 -0.00597263 0.00333431 -3.52876 
26 0.00160904 -0.00089781 -48.747 -2.77429 -2.7494 -6.239 0.00419096 0.100858 -0.0563252 -3.52608 
27 0.00352815 -0.00207805 -46.1662 -3.11101 -3.07261 -6.44499 0.00810983 0.0861489 -0.0521891 -3.52649 
28 0.00458014 -0.00294754 -43.5846 -3.38866 -3.3474 -6.70206 0.00957415 0.0806656 -0.0458038 -3.52606 
29 0.0051084 -0.00355951 -41.0039 -3.63811 -3.59596 -6.98306 0.0102428 0.0803104 -0.0397406 -3.52548 
30 0.00531736 -0.00396438 -38.4248 -3.88171 -3.83914 -7.28297 0.0103276 0.0820407 -0.0346627 -3.52467 
31 0.00532578 -0.00419792 -35.8479 -4.12175 -4.07866 -7.59902 0.00996939 0.0838541 -0.0309196 -3.52364 
32 0.00519879 -0.00428792 -33.2735 -4.34978 -4.30579 -7.92112 0.00930154 0.084591 -0.0286054 -3.52243 
33 0.00496591 -0.00425599 -30.7022 -4.55334 -4.50803 -8.23248 0.00841231 0.0837146 -0.0276467 -3.52117 
34 0.00463171 -0.00411867 -28.134 -4.724 -4.67707 -8.51641 0.00729373 0.0812823 -0.0279576 -3.51996 
35 0.00418601 -0.00389081 -25.5689 -4.86022 -4.8117 -8.76222 0.0058497 0.0779079 -0.0295079 -3.51889 
36 0.00361564 -0.00359006 -23.0064 -4.96503 -4.91544 -8.96632 0.00397214 0.0745738 -0.0322528 -3.51797 
37 0.00291545 -0.00323936 -20.4463 -5.04324 -4.99357 -9.13024 0.00163346 0.0722834 -0.036019 -3.51723 
38 0.00209479 -0.00286562 -17.8881 -5.09978 -5.05136 -9.25819 -0.00106667 0.0717123 -0.0404479 -3.51663 
39 0.00117747 -0.00249541 -15.3313 -5.13918 -5.09341 -9.35537 -0.00392491 0.0730176 -0.04505 -3.51618 
40 0.000196481 -0.00215012 -12.7758 -5.16526 -5.12341 -9.42695 -0.00670379 0.0758678 -0.0493339 -3.51584 
41 -0.000813181 -0.00184305 -10.2211 -5.18113 -5.14417 -9.4776 -0.0091993 0.0796278 -0.0529262 -3.51559 
42 -0.00182038 -0.0015791 -7.66711 -5.18922 -5.15778 -9.51119 -0.0112768 0.0835791 -0.0556216 -3.51543 
43 -0.00280088 -0.00135627 -5.11349 -5.19131 -5.16568 -9.53079 -0.0128755 0.0870924 -0.0573636 -3.51533 
44 -0.00373764 -0.00116782 -2.56012 -5.18862 -5.16888 -9.53865 -0.0139953 0.0897275 -0.0581888 -3.51528 
45 0.0909269 2.15914 1.26904 -4.05724 -5.13044 -3.83159 -0.0648381 -0.412431 -0.000322769 -3.52911 
46 0.0640027 2.16023 3.82238 -4.04855 -5.12954 -3.81949 -0.0507157 -0.412163 -0.0096496 -3.52913 
47 0.0371461 2.16098 6.37597 -4.04231 -5.12676 -3.79964 -0.0364688 -0.412135 -0.0189253 -3.52915 
48 0.0103709 2.16142 8.92995 -4.03857 -5.12188 -3.7712 -0.022328 -0.412268 -0.0284128 -3.52917 
49 -0.0163064 2.16154 11.4845 -4.03741 -5.11443 -3.73277 -0.00852212 -0.412479 -0.0384258 -3.5292 
50 -0.0428682 2.16135 14.0397 -4.03887 -5.10357 -3.68224 0.0047176 -0.41269 -0.0493611 -3.52925 
51 -0.0692966 2.16087 16.596 -4.04281 -5.08797 -3.6168 0.0171555 -0.412833 -0.0617057 -3.5293 
52 -0.0955752 2.16008 19.1534 -4.04867 -5.06558 -3.53283 0.0285416 -0.41285 -0.0759966 -3.52937 
53 -0.121691 2.15898 21.7124 -4.05501 -5.03338 -3.42598 0.0385903 -0.412685 -0.0927057 -3.52945 
54 -0.147632 2.15757 24.2733 -4.05895 -4.98697 -3.29144 0.0469586 -0.412264 -0.112009 -3.52956 
55 -0.173392 2.15587 26.8366 -4.05523 -4.92029 -3.1248 0.0532624 -0.411475 -0.13339 -3.52971 
56 -0.19896 2.15391 29.4026 -4.03505 -4.8256 -2.92361 0.0571942 -0.410143 -0.155108 -3.5299 
57 -0.224319 2.15176 31.9718 -3.9858 -4.69481 -2.69003 0.0587929 -0.408012 -0.173929 -3.53017 
58 -0.249434 2.14951 34.5443 -3.89437 -4.52357 -2.43305 0.0587783 -0.404726 -0.186297 -3.53052 
59 -0.274247 2.14718 37.1199 -3.75581 -4.31727 -2.16676 0.058554 -0.399828 -0.191924 -3.53093 
60 -0.298685 2.14468 39.6982 -3.57887 -4.0904 -1.90239 0.0595213 -0.392941 -0.195906 -3.53133 
61 -0.322688 2.14192 42.2788 -3.37589 -3.8534 -1.6399 0.0622846 -0.384169 -0.204482 -3.53169 
62 -0.346243 2.13879 44.8613 -3.15408 -3.6026 -1.36716 0.0660615 -0.373696 -0.224426 -3.53197 
63 -0.369403 2.1355 47.446 -2.88563 -3.28792 -1.07847 0.0673774 -0.361843 -0.247881 -3.53226 
64 -0.392512 2.13371 50.032 -2.41334 -2.79981 -0.473183 0.0504192 -0.39603 -0.214017 -3.53327 
65 -0.418483 2.1304 52.6263 -1.7661 -2.00479 -0.560909 0.0453071 -0.308794 -0.730448 -3.52456 
66 -0.44812 2.14653 55.1778 6.97718 7.73863 2.43052 0.0331584 -0.597268 1.76993 -3.02528 
67 0.649859 2.05055 -55.162 1.38983 0.842876 -0.677035 -0.188211 -0.0991791 1.20786 -3.26036 
68 0.633027 2.08274 -52.6122 -1.11303 -2.2192 -0.458034 -0.37464 -0.489109 -0.161691 -3.53569 
69 0.607028 2.08678 -50.0319 -2.01407 -2.59069 -0.9146 -0.150073 -0.407562 0.0752716 -3.53402 
70 0.583977 2.08777 -47.4541 -2.70659 -3.10341 -1.28216 -0.126275 -0.359302 0.148432 -3.53287 
71 0.560942 2.09086 -44.8728 -3.13929 -3.47123 -1.43782 -0.101814 -0.363167 0.19386 -3.53219 
72 0.537356 2.09485 -42.2916 -3.44072 -3.75349 -1.66307 -0.0900685 -0.371219 0.208036 -3.53175 
73 0.51321 2.09917 -39.7116 -3.68482 -4.00604 -1.90916 -0.0863542 -0.379209 0.21674 -3.53132 
74 0.488559 2.10369 -37.1335 -3.8872 -4.24051 -2.16766 -0.0888489 -0.386281 0.222769 -3.53088 
75 0.463489 2.10839 -34.5579 -4.04544 -4.45197 -2.43187 -0.0960182 -0.392637 0.223629 -3.53045 
76 0.43808 2.11326 -31.9852 -4.15539 -4.6308 -2.6902 -0.105804 -0.398827 0.216583 -3.53007 
77 0.41238 2.11825 -29.4158 -4.21991 -4.77179 -2.92927 -0.116001 -0.405029 0.201551 -3.52977 
78 0.386411 2.12325 -26.8496 -4.24842 -4.87701 -3.1391 -0.124947 -0.410845 0.180974 -3.52955 
79 0.360181 2.12814 -24.2862 -4.25183 -4.95278 -3.31523 -0.131711 -0.415624 0.157786 -3.52939 
80 0.333707 2.13283 -21.7254 -4.2394 -5.00637 -3.45788 -0.135836 -0.418867 0.134262 -3.52928 
81 0.307019 2.13724 -19.1666 -4.21801 -5.04414 -3.57012 -0.137099 -0.420438 0.111849 -3.52921 
82 0.280163 2.14131 -16.6094 -4.19256 -5.07098 -3.65627 -0.135437 -0.420565 0.091345 -3.52916 
83 0.253189 2.14502 -14.0536 -4.16633 -5.09031 -3.7208 -0.130961 -0.41968 0.0730781 -3.52913 
84 0.226145 2.14833 -11.4987 -4.14137 -5.10439 -3.76777 -0.123948 -0.418246 0.0570422 -3.52911 
85 0.199069 2.15125 -8.94452 -4.1188 -5.11462 -3.80052 -0.114786 -0.416645 0.0430085 -3.5291 
86 0.171991 2.15378 -6.39082 -4.09909 -5.1219 -3.82168 -0.103906 -0.415147 0.0306286 -3.5291 
87 0.144932 2.15593 -3.83743 -4.08235 -5.12676 -3.83315 -0.0917214 -0.413909 0.0195172 -3.5291 
88 0.117907 2.15771 -1.28419 -4.06846 -5.12954 -3.83621 -0.0785956 -0.413001 0.00930733 -3.5291 
89 0.213661 4.32589 -0.00778357 -3.39582 -4.73846 -3.29623 -0.089053 -0.897777 0.0428661 -3.53371 
90 0.283249 6.49825 1.26868 -2.77892 -4.34521 -2.85908 -0.0911576 -1.33023 0.0574653 -3.53389 
91 2.20359 2.7362 -0.00566116 -3.39488 -3.5342 -3.06067 -0.42884 -0.301744 0.256848 -3.52983 
92 2.16955 2.76279 2.54756 -3.37743 -3.54647 -3.05337 -0.425097 -0.30716 0.24958 -3.52983 
93 2.28935 4.92745 1.26993 -2.72715 -3.56568 -2.73608 -0.354729 -0.778626 0.0272588 -3.53337 
94 4.28616 3.33571 1.27283 -3.40651 -2.89377 -2.73384 -0.50641 -0.194421 0.762442 -3.53336 
95 0.160498 4.32824 2.54531 -3.38846 -4.74032 -3.28968 -0.0708208 -0.898012 0.0247043 -3.53372 
96 0.107386 4.3299 5.09858 -3.3851 -4.74225 -3.27729 -0.0523994 -0.898444 0.00642003 -3.53372 
97 0.203838 6.50117 3.82157 -2.77578 -4.34885 -2.8517 -0.0701431 -1.33116 0.0313854 -3.53388 
98 2.2288 4.95479 3.8231 -2.71536 -3.57727 -2.72681 -0.34172 -0.780749 0.0115832 -3.53338 
99 0.124483 6.50305 6.37468 -2.77712 -4.35403 -2.83986 -0.0490528 -1.33238 0.0047655 -3.53387 
100 4.24475 3.38743 3.82599 -3.38944 -2.90988 -2.72429 -0.509559 -0.208644 0.756671 -3.53336 
101 2.13521 2.78891 5.10094 -3.36222 -3.55995 -3.03957 -0.41973 -0.312837 0.242218 -3.52984 
102 2.1006 2.81456 7.65463 -3.34934 -3.57454 -3.01883 -0.412752 -0.318914 0.234527 -3.52983 
103 2.16795 4.98129 6.37649 -2.70713 -3.59022 -2.71166 -0.327131 -0.783198 -0.00465405 -3.53338 
104 4.2027 3.43856 6.37936 -3.37483 -2.92857 -2.70875 -0.510694 -0.223209 0.750692 -3.53337 
105 0.0543453 4.33088 7.65215 -3.3858 -4.74424 -3.2586 -0.033968 -0.899038 -0.0124039 -3.53372 
106 0.00139822 4.33119 10.2061 -3.39081 -4.74618 -3.23272 -0.0157126 -0.899751 -0.0322283 -3.53372 
107 0.0452115 6.50387 8.92811 -2.78317 -4.36083 -2.82305 -0.0280242 -1.33388 -0.0229408 -3.53385 
108 2.10683 5.00693 8.93023 -2.70267 -3.60449 -2.69006 -0.310962 -0.786125 -0.0218831 -3.53337 
109 -0.033944 6.50366 11.482 -2.79442 -4.36925 -2.80038 -0.00721743 -1.33568 -0.0523495 -3.53383 
110 4.16003 3.48908 8.93308 -3.36285 -2.94987 -2.68661 -0.509686 -0.238447 0.744218 -3.53337 
111 2.06573 2.83973 10.2088 -3.33892 -3.59012 -2.99023 -0.404098 -0.325553 0.226235 -3.52983 
112 2.03061 2.8644 12.7635 -3.33115 -3.60649 -2.95233 -0.393624 -0.332969 0.216999 -3.52982 
113 2.04546 5.0317 11.4845 -2.70233 -3.61996 -2.66099 -0.293156 -0.789717 -0.040608 -3.53337 
114 4.11675 3.53898 11.4873 -3.35371 -2.97387 -2.65683 -0.50631 -0.254732 0.736901 -3.53337 
115 -0.0514296 4.33083 12.7607 -3.40056 -4.74782 -3.19825 0.00216773 -0.900528 -0.0535916 -3.53371 
116 -0.10411 4.3298 15.3161 -3.41551 -4.74858 -3.15323 0.0194615 -0.901297 -0.0771235 -3.53371 
117 -0.112949 6.50239 14.0365 -2.81149 -4.37921 -2.77052 0.013183 -1.33778 -0.0841728 -3.53379 
118 1.98386 5.05558 14.0394 -2.70659 -3.6364 -2.62297 -0.273614 -0.794215 -0.0614359 -3.53336 
119 -0.191766 6.50006 16.5918 -2.83509 -4.39034 -2.73157 0.0329762 -1.3401 -0.119216 -3.53375 
120 4.07287 3.58821 14.0422 -3.34764 -3.0006 -2.61793 -0.500238 -0.272518 0.728296 -3.53336 
121 1.99525 2.88857 15.3191 -3.32614 -3.62323 -2.90307 -0.381106 -0.341448 0.206378 -3.5298 
122 1.95967 2.91221 17.8757 -3.32381 -3.63959 -2.83977 -0.366261 -0.351344 0.193828 -3.52978 
123 1.92206 5.07854 16.5952 -2.71592 -3.65336 -2.57394 -0.252198 -0.799919 -0.0850814 -3.53335 
124 4.0284 3.63675 16.5979 -3.34482 -3.02996 -2.56789 -0.491057 -0.292344 0.717831 -3.53336 
125 -0.156613 4.3281 17.8725 -3.43605 -4.74745 -3.095 0.0359452 -0.901958 -0.103517 -3.5337 
126 -0.208909 4.32572 20.4302 -3.46212 -4.74264 -3.02011 0.0513743 -0.90238 -0.13343 -3.5337 
127 -0.270351 6.49668 19.1482 -2.8658 -4.40177 -2.68089 0.0519579 -1.34251 -0.158317 -3.53369 
128 1.86007 5.10054 19.1522 -2.73063 -3.66994 -2.51127 -0.22876 -0.807182 -0.11232 -3.53333 
129 -0.348662 6.49223 21.7058 -2.90374 -4.41182 -2.61494 0.0699284 -1.34475 -0.202194 -3.53363 
130 3.98336 3.68455 19.1548 -3.34517 -3.06154 -2.50423 -0.478306 -0.314822 0.70481 -3.53334 
131 1.92388 2.93529 20.4337 -3.32362 -3.65422 -2.75908 -0.348785 -0.363045 0.178751 -3.52976 
132 1.88791 2.9578 22.9934 -3.32416 -3.66482 -2.65714 -0.328453 -0.376859 0.160622 -3.52972 
133 1.79794 5.12156 21.7105 -2.75062 -3.68465 -2.43175 -0.2032 -0.81637 -0.143859 -3.53331 
134 3.93775 3.73158 21.7131 -3.34819 -3.09431 -2.42396 -0.46157 -0.340557 0.688458 -3.53332 
135 -0.260971 4.32268 22.9895 -3.49282 -4.73124 -2.92432 0.0654531 -0.902396 -0.167278 -3.5337 
136 -0.312775 4.319 25.5509 -3.52551 -4.70868 -2.80277 0.0777879 -0.901818 -0.204842 -3.53371 
137 -0.426653 6.48674 24.2651 -2.94807 -4.4175 -2.52914 0.0866793 -1.34642 -0.251129 -3.53357 
138 1.73568 5.14158 24.2707 -2.77484 -3.69492 -2.33173 -0.175586 -0.827776 -0.18006 -3.53328 
139 -0.504282 6.48029 26.8264 -2.99605 -4.41377 -2.41793 0.101934 -1.34703 -0.304426 -3.53351 
140 3.89161 3.7778 24.2732 -3.35247 -3.12622 -2.32371 -0.440652 -0.369958 0.668083 -3.53329 
141 1.85178 2.97973 25.5551 -3.32251 -3.66756 -2.52991 -0.305298 -0.39279 0.139267 -3.52967 
142 1.81553 3.0011 28.1194 -3.31321 -3.65638 -2.37386 -0.279879 -0.410124 0.11537 -3.52962 
143 1.67334 5.16063 26.833 -2.80058 -3.69668 -2.20745 -0.146382 -0.841411 -0.220451 -3.53323 
144 3.84499 3.8232 26.8354 -3.35504 -3.15353 -2.19997 -0.415853 -0.402834 0.643408 -3.53324 
145 -0.364303 4.31475 28.1147 -3.55459 -4.66808 -2.65066 0.0878571 -0.900455 -0.244667 -3.53375 
146 -0.415536 4.31005 30.6814 -3.56988 -4.59992 -2.46482 0.0950874 -0.898087 -0.283391 -3.53383 
147 -0.581514 6.47301 29.3903 -3.04173 -4.39265 -2.27537 0.115234 -1.34607 -0.359629 -3.53349 
148 1.61098 5.1788 29.3979 -2.82214 -3.68367 -2.05575 -0.116755 -0.85658 -0.262941 -3.53318 
149 -0.658318 6.46517 31.9572 -3.07411 -4.34233 -2.09686 0.125815 -1.34317 -0.411797 -3.53352 
150 3.79801 3.86781 29.4001 -3.35029 -3.16985 -2.04955 -0.388329 -0.437705 0.615198 -3.53318 
151 1.77927 3.02199 30.6866 -3.28713 -3.62239 -2.18735 -0.253617 -0.426856 0.0911911 -3.52957 
152 1.74315 3.04257 33.257 -3.23125 -3.55437 -1.97242 -0.228924 -0.439425 0.0709602 -3.52956 
153 1.54871 5.19632 31.9658 -2.82924 -3.64681 -1.87514 -0.0888802 -0.871172 -0.302964 -3.53312 
154 3.75086 3.91177 31.9679 -3.32851 -3.16503 -1.87051 -0.360386 -0.470957 0.586119 -3.53312 
155 -0.466446 4.30512 33.2513 -3.55586 -4.49291 -2.24652 0.0991532 -0.894303 -0.315818 -3.534 
156 -0.51697 4.30015 35.8247 -3.49508 -4.33823 -2.00438 0.100478 -0.888237 -0.337409 -3.53427 
157 -0.734653 6.45714 34.5275 -3.07581 -4.24744 -1.88276 0.132718 -1.33783 -0.453906 -3.53365 
158 1.48673 5.2135 34.5371 -2.80602 -3.57402 -1.66732 -0.0657959 -0.88101 -0.333554 -3.5331 
159 -0.81043 6.4493 37.1014 -3.02584 -4.09346 -1.64312 0.135469 -1.32878 -0.480351 -3.53392 
160 3.70387 3.9553 34.5389 -3.27489 -3.12508 -1.66395 -0.335265 -0.496765 0.561138 -3.5331 
161 1.70737 3.06302 35.8307 -3.13194 -3.44227 -1.73618 -0.208557 -0.444001 0.0592161 -3.52962 
162 1.6721 3.08345 38.4075 -2.98397 -3.28426 -1.48923 -0.193755 -0.440249 0.0555985 -3.52979 
163 1.42529 5.23074 37.1116 -2.73384 -3.45257 -1.43911 -0.0502925 -0.880909 -0.348809 -3.53316 
164 3.65742 3.99867 37.1133 -3.17165 -3.03569 -1.43642 -0.315859 -0.509774 0.545439 -3.53315 
165 -0.567001 4.2952 38.4013 -3.37905 -4.13822 -1.75342 0.10054 -0.878743 -0.349728 -3.53462 
166 -0.616422 4.29009 40.9804 -3.21564 -3.90876 -1.50573 0.101347 -0.865331 -0.361848 -3.53496 
167 -0.885501 6.44171 39.6785 -2.91291 -3.87999 -1.39755 0.13511 -1.31435 -0.494307 -3.53429 
168 1.36465 5.24822 39.6892 -2.6025 -3.27779 -1.2022 -0.0429066 -0.869701 -0.352008 -3.53333 
169 -0.959746 6.43409 42.258 -2.7456 -3.6269 -1.16341 0.134074 -1.29462 -0.508638 -3.53464 
170 3.61179 4.04203 39.6907 -3.00892 -2.89184 -1.20018 -0.302705 -0.511253 0.537699 -3.53332 
171 1.63738 3.10375 40.9869 -2.79601 -3.0891 -1.23914 -0.182987 -0.433459 0.052129 -3.53002 
172 1.60314 3.1238 43.5682 -2.57838 -2.86462 -0.983446 -0.173968 -0.430138 0.040532 -3.53029 
173 1.30487 5.26578 42.2691 -2.41867 -3.05868 -0.966593 -0.0410384 -0.853969 -0.357553 -3.53358 
174 3.56692 4.08528 42.2705 -2.79439 -2.70191 -0.966946 -0.293812 -0.511005 0.527192 -3.53357 
175 -0.665189 4.28462 43.5615 -3.01642 -3.65989 -1.2604 0.103825 -0.848866 -0.382332 -3.53526 
176 -0.713427 4.27875 46.1441 -2.7936 -3.38876 -0.997089 0.106985 -0.831032 -0.416828 -3.53552 
177 -1.03321 6.42624 44.8389 -2.5309 -3.34071 -0.9469 0.133414 -1.27203 -0.528752 -3.53499 
178 1.24582 5.28327 44.8505 -2.18986 -2.79983 -0.733734 -0.0433153 -0.842205 -0.376893 -3.5339 
179 -1.10625 6.41846 47.42 -2.2756 -3.00934 -0.7589 0.133837 -1.25077 -0.545078 -3.53532 
180 3.52264 4.12836 44.8517 -2.53403 -2.47326 -0.742466 -0.286891 -0.517822 0.505497 -3.53387 
181 1.56923 3.14357 46.1513 -2.33658 -2.6127 -0.704723 -0.166867 -0.437511 0.0127513 -3.53056 
182 1.5356 3.16348 48.7363 -2.0711 -2.35213 -0.333795 -0.178702 -0.4563 -0.0257324 -3.53019 
183 1.1871 5.30072 47.4329 -1.9238 -2.49895 -0.501111 -0.0591159 -0.846602 -0.422073 -3.53415 
184 3.47871 4.17133 47.4337 -2.22377 -2.21552 -0.534103 -0.282879 -0.541949 0.46122 -3.53407 
185 -0.761492 4.27352 48.7282 -2.58229 -3.06162 -0.648217 0.0995118 -0.812566 -0.427106 -3.53522 
186 -0.811621 4.26877 51.3169 -1.98875 -2.3497 0.318093 0.0837884 -0.844423 -0.6529 -3.53803 
187 -1.17889 6.41384 50.0002 -2.04305 -2.54082 -0.320694 0.0765066 -1.25975 -0.623511 -3.53576 
188 1.12775 5.31799 50.0156 -1.56407 -2.07257 -0.0110787 -0.106461 -0.932882 -0.591551 -3.53487 
189 -1.25707 6.40546 52.5877 -1.61225 -2.48667 0.643613 0.176098 -1.31673 -0.612559 -3.53281 
190 3.43505 4.21346 50.0156 -1.7551 -1.84906 -0.0339744 -0.306683 -0.658102 0.315239 -3.53492 
191 1.50027 3.18358 51.3264 -1.4315 -1.70052 0.660519 -0.17263 -0.551035 -0.132576 -3.53271 
192 1.46587 3.20964 53.9052 0.0265511 0.95381 -0.796413 0.56622 -0.561179 0.138677 -3.37565 
193 1.06597 5.33731 52.6041 -1.24945 -1.89882 0.440963 -0.237136 -0.801149 -0.410529 -3.52778 
194 3.38747 4.26008 52.6041 -1.4102 -1.71421 0.389293 -0.390482 -0.639134 0.587756 -3.52746 
195 -0.866323 4.2769 53.8949 -0.0506182 -0.20645 -1.18021 0.0794701 -1.2617 1.02743 -3.38132 
196 1.3298 4.1174 -56.3442 5.0695 2.90529 1.60231 -1.25491 -0.273865 0.110305 -2.79034 
197 -1.33605 6.40133 55.1665 4.17937 2.79784 1.28973 0.319814 -1.52333 0.19828 -3.26107 
198 1.00488 5.36129 55.1754 5.64291 6.63213 2.70817 0.370233 -0.636362 -0.0321214 -3.15047 
199 1.98371 6.26223 -55.1334 6.94017 9.11551 2.92975 0.134115 -0.847952 -0.525818 -3.02309 
200 3.34328 4.30996 55.1754 5.53077 7.3585 2.86951 0.118566 -0.278343 0.562931 -3.15115 
201 2.87095 2.09325 -56.362 4.04256 6.00653 1.88141 -3.16459 0.252826 0.341957 -2.79939 
202 2.84551 2.1252 -53.8874 0.165435 0.763568 -3.02638 -0.981947 -0.732756 -0.162312 -3.51266 
203 3.53831 4.21674 -55.1525 6.03172 6.27399 1.75909 0.302424 -1.21937 -0.0444541 -3.14331 
204 5.07312 2.13635 -55.1525 6.04999 7.03895 2.0029 0.446016 -0.528072 0.0806392 -3.14511 
205 1.29262 4.16451 -53.8815 0.8612 -0.347593 -3.67543 -0.408595 -0.573908 0.838973 -3.51412 
206 1.24176 4.17585 -51.3147 -1.28888 -1.91322 -0.38942 -0.21491 -0.883911 0.220005 -3.53909 
207 1.90264 6.26187 -52.5941 -0.918433 -1.45664 -0.57248 -0.184178 -1.16812 0.820026 -3.52794 
208 3.4607 4.22944 -52.6036 -0.750064 -0.926315 0.0942252 -0.677584 -0.496353 0.191154 -3.5302 
209 1.82403 6.27282 -50.0101 -1.64866 -2.34804 -0.289496 -0.1871 -1.25886 0.433394 -3.53679 
210 5.01221 2.17771 -52.6036 -1.3427 -0.349308 0.0534198 -0.502698 0.0189896 0.99137 -3.52953 
211 2.80522 2.14769 -51.32 -1.10512 -0.94898 -0.129714 -0.278934 -0.336769 0.262946 -3.53418 
212 2.77336 2.17434 -48.7409 -2.01031 -1.85711 -0.594848 -0.294714 -0.170441 0.349685 -3.53084 
213 3.40036 4.25787 -50.02 -1.44987 -1.66946 -0.172321 -0.413512 -0.684397 0.294295 -3.53493 
214 4.971 2.23184 -50.02 -1.86451 -1.2848 -0.141943 -0.298613 0.0437502 0.839312 -3.53497 
215 1.19094 4.18029 -48.7359 -2.22577 -2.78444 -0.836505 -0.185349 -0.805049 0.28081 -3.5364 
216 1.14314 4.186 -46.155 -2.70327 -3.21239 -1.03155 -0.166279 -0.80316 0.399142 -3.53605 
217 1.75096 6.27858 -47.4312 -2.15031 -2.84829 -0.726445 -0.218134 -1.21561 0.546338 -3.5359 
218 3.3471 4.2872 -47.4418 -1.93348 -2.21573 -0.614851 -0.301842 -0.601896 0.347613 -3.53417 
219 1.6785 6.29015 -44.8506 -2.53176 -3.2049 -0.912191 -0.205177 -1.22325 0.60412 -3.53536 
220 4.93669 2.28402 -47.4409 -2.35718 -1.79434 -0.584253 -0.210871 0.141719 0.86842 -3.53421 
221 2.74507 2.2012 -46.1603 -2.42491 -2.2769 -0.791726 -0.230259 -0.124019 0.399652 -3.53074 
222 2.71795 2.2295 -43.579 -2.74747 -2.5936 -1.00339 -0.212507 -0.120516 0.418245 -3.53036 
223 3.29507 4.31912 -44.8616 -2.28861 -2.5761 -0.766752 -0.261111 -0.597339 0.380495 -3.53392 
224 4.90517 2.33675 -44.8605 -2.71273 -2.14592 -0.762497 -0.174916 0.17058 0.89823 -3.53391 
225 1.0953 4.1942 -43.5738 -3.04954 -3.52918 -1.25854 -0.151253 -0.815661 0.425327 -3.53552 
226 1.04688 4.20317 -40.9932 -3.31409 -3.80146 -1.4972 -0.146798 -0.831657 0.4335 -3.53507 
227 1.60577 6.30341 -42.2701 -2.82119 -3.50848 -1.13769 -0.20381 -1.24377 0.620299 -3.53485 
228 3.24347 4.35257 -42.2811 -2.56981 -2.86874 -0.967194 -0.243536 -0.604766 0.396889 -3.5336 
229 1.53222 6.31742 -39.6908 -3.0372 -3.77303 -1.37965 -0.20993 -1.26551 0.62506 -3.53439 
230 4.8747 2.39046 -42.2799 -3.0046 -2.42383 -0.968823 -0.163406 0.176582 0.922432 -3.53357 
231 2.69087 2.25863 -40.9983 -3.0071 -2.85148 -1.23225 -0.208522 -0.122566 0.432256 -3.53005 
232 2.66353 2.28844 -38.4192 -3.22186 -3.06429 -1.47188 -0.212376 -0.124206 0.444474 -3.52979 
233 3.19173 4.38713 -39.7016 -2.79133 -3.10586 -1.19077 -0.237512 -0.613128 0.407016 -3.53332 
234 4.84446 2.44522 -39.7002 -3.24501 -2.63839 -1.1927 -0.16356 0.177886 0.94407 -3.5333 
235 0.997723 4.21252 -38.4143 -3.51712 -4.04324 -1.74525 -0.150103 -0.846681 0.436424 -3.53465 
236 0.947861 4.22217 -35.8378 -3.66095 -4.25118 -1.99765 -0.158671 -0.859473 0.432902 -3.53427 
237 1.45773 6.332 -37.1137 -3.18347 -3.99433 -1.62956 -0.220433 -1.28426 0.621291 -3.53397 
238 3.13966 4.4227 -37.1241 -2.95548 -3.28733 -1.42349 -0.240595 -0.622299 0.409477 -3.53312 
239 1.38238 6.34719 -34.5397 -3.26058 -4.16127 -1.87387 -0.231537 -1.29962 0.60386 -3.53366 
240 4.81422 2.50104 -37.1226 -3.43386 -2.79264 -1.42445 -0.173746 0.175341 0.958461 -3.53311 
241 2.63594 2.3189 -35.8424 -3.3923 -3.2317 -1.71521 -0.223625 -0.127876 0.451153 -3.52961 
242 2.60813 2.34994 -33.2684 -3.51448 -3.35099 -1.95252 -0.242283 -0.137424 0.448174 -3.52951 
243 3.08724 4.45919 -34.5494 -3.06062 -3.41148 -1.65223 -0.252437 -0.636031 0.398664 -3.53303 
244 4.78397 2.55779 -34.5478 -3.56701 -2.88823 -1.65245 -0.194242 0.163317 0.960252 -3.53302 
245 0.897399 4.23214 -33.2643 -3.7449 -4.4163 -2.2432 -0.16952 -0.870427 0.418756 -3.53396 
246 0.846433 4.24233 -30.6942 -3.77569 -4.53577 -2.46847 -0.179964 -0.880111 0.392791 -3.53375 
247 1.3063 6.36284 -31.9692 -3.27756 -4.27178 -2.09639 -0.240457 -1.3123 0.570291 -3.53347 
248 3.03439 4.4963 -31.9779 -3.11131 -3.48522 -1.86474 -0.271633 -0.655437 0.373176 -3.53303 
249 1.22957 6.37861 -29.4022 -3.25144 -4.33552 -2.28602 -0.246107 -1.32227 0.523966 -3.5334 
250 4.7536 2.61519 -31.9762 -3.64726 -2.93417 -1.86489 -0.223639 0.138999 0.949073 -3.53301 
251 2.58005 2.38135 -30.6976 -3.58991 -3.42602 -2.17298 -0.26685 -0.153716 0.435149 -3.5295 
252 2.55157 2.4129 -28.1301 -3.62671 -3.46713 -2.3684 -0.294575 -0.174364 0.41531 -3.52953 
253 2.98098 4.5336 -29.4098 -3.11952 -3.52249 -2.05296 -0.295309 -0.677959 0.337375 -3.53308 
254 4.72282 2.6729 -29.4079 -3.685 -2.9455 -2.05339 -0.258643 0.104994 0.92919 -3.53305 
255 0.795017 4.25252 -28.1273 -3.76707 -4.61543 -2.66381 -0.188283 -0.888401 0.35797 -3.53363 
256 0.743184 4.26247 -25.5635 -3.73368 -4.66505 -2.82552 -0.193607 -0.894756 0.318772 -3.53358 
257 1.15225 6.39407 -26.8384 -3.19957 -4.36627 -2.43939 -0.248258 -1.32906 0.470872 -3.53341 
258 2.92685 4.5707 -26.8447 -3.09901 -3.53715 -2.21353 -0.32005 -0.700252 0.297241 -3.53313 
259 1.0744 6.4089 -24.2773 -3.1359 -4.37652 -2.55879 -0.246785 -1.33268 0.416413 -3.53346 
260 4.69138 2.7306 -26.8426 -3.69241 -2.9368 -2.2141 -0.295554 0.0662186 0.905489 -3.5331 
261 2.52258 2.44436 -25.5655 -3.63534 -3.48607 -2.53484 -0.322641 -0.196181 0.392616 -3.52958 
262 2.493 2.47556 -23.0036 -3.62526 -3.49259 -2.672 -0.348863 -0.216727 0.370009 -3.52962 
263 2.87195 4.60729 -24.2823 -3.06158 -3.53968 -2.34645 -0.342908 -0.719913 0.25739 -3.53319 
264 4.65907 2.78809 -24.2801 -3.68001 -2.91905 -2.34675 -0.331462 0.0271052 0.881519 -3.53315 
265 0.690977 4.27199 -23.0024 -3.68745 -4.69426 -2.9547 -0.195521 -0.898865 0.27901 -3.53357 
266 0.638453 4.28092 -20.4433 -3.6369 -4.71076 -3.0551 -0.193859 -0.900902 0.241162 -3.53358 
267 0.996109 6.42283 -21.7183 -3.07019 -4.37558 -2.64927 -0.241619 -1.3338 0.364192 -3.53354 
268 2.81627 4.64317 -21.7222 -3.01608 -3.537 -2.45365 -0.361926 -0.735828 0.220464 -3.53323 
269 0.917479 6.43572 -19.1612 -3.00852 -4.36959 -2.71657 -0.232891 -1.33337 0.316072 -3.53362 
270 4.62578 2.84521 -21.7198 -3.65579 -2.89943 -2.45339 -0.364545 -0.00944035 0.859338 -3.5332 
271 2.46279 2.5064 -20.4439 -3.60381 -3.49349 -2.78197 -0.371838 -0.234646 0.349166 -3.52967 
272 2.432 2.53681 -17.886 -3.57629 -3.49297 -2.868 -0.390864 -0.249496 0.330813 -3.52971 
273 2.75985 4.67824 -19.164 -2.96857 -3.5332 -2.53811 -0.376169 -0.747909 0.187563 -3.53327 
274 4.59149 2.90187 -19.1615 -3.62541 -2.88202 -2.53723 -0.393878 -0.0420041 0.839893 -3.53323 
275 0.585682 4.28916 -17.886 -3.58756 -4.71993 -3.13147 -0.188678 -0.901396 0.206499 -3.53361 
276 0.532728 4.29666 -15.3301 -3.54263 -4.7252 -3.18848 -0.180263 -0.900967 0.175427 -3.53363 
277 0.838588 6.44749 -16.6053 -2.95404 -4.36216 -2.76593 -0.220975 -1.33224 0.272654 -3.53369 
278 2.70275 4.71243 -16.6073 -2.92284 -3.53042 -2.60315 -0.385504 -0.75667 0.158816 -3.53329 
279 0.759505 6.45811 -14.0505 -2.90792 -4.3552 -2.80166 -0.20641 -1.33102 0.233758 -3.53375 
280 4.55621 2.95801 -16.6047 -3.59261 -2.8688 -2.60178 -0.419175 -0.0702609 0.823419 -3.53326 
281 2.40065 2.56674 -15.3295 -3.54634 -3.49326 -2.93369 -0.405787 -0.261447 0.315078 -3.52974 
282 2.3688 2.59619 -12.7741 -3.51632 -3.49535 -2.98248 -0.416822 -0.270994 0.301747 -3.52976 
283 2.64506 4.74574 -14.0517 -2.881 -3.52957 -2.65205 -0.390289 -0.762858 0.133831 -3.53331 
284 4.52001 3.01362 -14.049 -3.55981 -2.86039 -2.65038 -0.440549 -0.0945444 0.809741 -3.53328 
285 0.479651 4.3034 -12.7751 -3.50362 -4.72852 -3.23017 -0.169077 -0.900136 0.1478 -3.53366 
286 0.426495 4.30938 -10.2209 -3.47093 -4.73094 -3.25977 -0.155658 -0.899254 0.123164 -3.53368 
287 0.680282 6.46757 -11.4965 -2.87009 -4.34956 -2.82702 -0.189786 -1.33002 0.198802 -3.5338 
288 2.58684 4.77817 -11.4971 -2.84395 -3.5309 -2.68773 -0.391111 -0.767215 0.11198 -3.53333 
289 0.60096 6.4759 -8.94295 -2.83988 -4.34554 -2.84438 -0.17164 -1.32938 0.167039 -3.53383 
290 4.48294 3.06868 -11.4943 -3.5284 -2.8567 -2.68592 -0.45833 -0.115508 0.798472 -3.5333 
291 2.33651 2.62515 -10.2196 -3.48762 -3.49951 -3.01741 -0.424389 -0.278738 0.290435 -3.52978 
292 2.30381 2.65362 -7.66567 -3.46094 -3.50568 -3.04099 -0.428966 -0.285255 0.2807 -3.5298 
293 2.52813 4.80972 -8.94305 -2.81186 -3.53434 -2.71265 -0.388599 -0.770363 0.0925728 -3.53334 
294 4.44505 3.12319 -8.94022 -3.49911 -2.85732 -2.71079 -0.472928 -0.133897 0.78914 -3.53332 
295 0.373295 4.3146 -7.66726 -3.44434 -4.73296 -3.27972 -0.140534 -0.898516 0.100935 -3.53369 
296 0.320076 4.31908 -5.11394 -3.42334 -4.73483 -3.29174 -0.124162 -0.898013 0.0805074 -3.5337 
297 0.52157 6.48311 -6.38981 -2.81643 -4.34316 -2.85538 -0.152417 -1.32911 0.137702 -3.53386 
298 2.469 4.84041 -6.3895 -2.78451 -3.53971 -2.72874 -0.383312 -0.772777 0.0749487 -3.53335 
299 0.442139 6.48923 -3.8369 -2.79888 -4.34235 -2.86112 -0.132447 -1.32918 0.110075 -3.53388 
300 4.4064 3.17715 -6.38663 -3.47225 -2.86174 -2.72684 -0.484742 -0.15042 0.781275 -3.53333 
301 2.27074 2.68162 -5.11214 -3.43658 -3.51365 -3.05519 -0.431002 -0.291029 0.272106 -3.52981 
302 2.23733 2.70915 -2.55885 -3.41457 -3.52321 -3.06144 -0.430869 -0.296433 0.264265 -3.52982 
303 2.40947 4.87026 -3.83624 -2.76152 -3.54682 -2.73743 -0.375703 -0.774804 0.0585179 -3.53336 
304 4.36701 3.23056 -3.83335 -3.44789 -2.86951 -2.73547 -0.494109 -0.165692 0.774444 -3.53334 
305 0.26686 4.32284 -2.56083 -3.40733 -4.73665 -3.29701 -0.106907 -0.89777 0.0613186 -3.53371 
306 0.362691 6.49427 -1.28411 -2.78654 -4.34304 -2.86224 -0.111971 -1.32956 0.0835202 -3.53388 
307 2.34958 4.89927 -1.28314 -2.74249 -3.55551 -2.73969 -0.366101 -0.776693 0.0427694 -3.53337 
308 4.32692 3.28342 -1.28025 -3.426 -2.88027 -2.73763 -0.50128 -0.180221 0.768273 -3.53335 
309 2.43415 7.09137 -0.00660854 -2.21577 -3.35743 -2.40868 -0.326113 -1.18469 -0.171023 -3.53293 
310 0.432336 8.66911 -0.00751422 -2.25205 -4.02071 -2.49525 -0.11207 -1.72073 0.093091 -3.53363 
311 0.326565 8.67366 2.54495 -2.24813 -4.02429 -2.49099 -0.0893207 -1.72207 0.0598491 -3.53363 