ITEM: TIMESTEP
0
ITEM: NUMBER OF ATOMS
37664
ITEM: BOX BOUNDS ff ff ff
-100 100
-100 100
-156.15 156.15
ITEM: ATOMS id x y z v_peratom_sxx v_peratom_syy v_peratom_szz v_peratom_sxy v_peratom_sxz v_peratom_syz c_atomPE 
1 -0.00397307 -0.000289603 -0.00744623 -5.18438 -5.17461 -9.54199 -0.0182844 0.111308 -0.0406642 -3.51526 
2 -0.00465376 -0.000205673 2.54583 -5.17614 -5.17057 -9.53081 -0.0183903 0.111376 -0.0396111 -3.51531 
3 -0.00530008 -0.000124576 5.09934 -5.16385 -5.16245 -9.51077 -0.018016 0.110031 -0.0379512 -3.5154 
4 -0.00590709 -4.08819e-05 7.65312 -5.14705 -5.14972 -9.47816 -0.0174622 0.107758 -0.0360892 -3.51555 
5 -0.00647295 4.63952e-05 10.2075 -5.12565 -5.13282 -9.43607 -0.0165702 0.104655 -0.0338301 -3.51574 
6 -0.00698431 0.000159308 12.7623 -5.09782 -5.10791 -9.37858 -0.016181 0.10093 -0.0313048 -3.51601 
7 -0.00743073 0.00029662 15.3182 -5.06291 -5.07709 -9.30228 -0.0148541 0.0970103 -0.0281295 -3.51635 
8 -0.0077825 0.000462808 17.8751 -5.01684 -5.03544 -9.20846 -0.0140867 0.0936446 -0.0242331 -3.51678 
9 -0.00803515 0.00066505 20.4334 -4.96055 -4.98147 -9.0872 -0.0134116 0.0905962 -0.0202572 -3.51732 
10 -0.0081756 0.000892969 22.9935 -4.88521 -4.90999 -8.93369 -0.0123856 0.0873459 -0.0168313 -3.51801 
11 -0.0081996 0.00112826 25.5557 -4.78745 -4.8154 -8.74044 -0.0117814 0.0845244 -0.0136214 -3.51886 
12 -0.00810062 0.00135961 28.1206 -4.66107 -4.69139 -8.50438 -0.0108564 0.0818894 -0.0106736 -3.51989 
13 -0.0078803 0.00156515 30.6886 -4.50004 -4.53315 -8.22896 -0.0110142 0.0793591 -0.00951306 -3.52107 
14 -0.00753072 0.00171169 33.2596 -4.30206 -4.33677 -7.91872 -0.0101998 0.0769426 -0.00941121 -3.52236 
15 -0.00703907 0.00178188 35.8339 -4.07733 -4.1126 -7.59314 -0.00977394 0.0751174 -0.0104398 -3.52361 
16 -0.0063968 0.00177119 38.411 -3.83911 -3.87464 -7.26697 -0.00965915 0.0738223 -0.0125633 -3.52471 
17 -0.00556824 0.00165667 40.9905 -3.60079 -3.63555 -6.94954 -0.00853278 0.07354 -0.015112 -3.52559 
18 -0.00450021 0.00141204 43.5723 -3.36177 -3.39488 -6.629 -0.00775735 0.0746858 -0.0183718 -3.52631 
19 -0.00311525 0.00101906 46.1564 -3.09935 -3.12862 -6.26735 -0.00687601 0.0782576 -0.0221786 -3.52704 
20 -0.00131619 0.000427979 48.7433 -2.72284 -2.73927 -5.83185 -0.00333492 0.0830379 -0.0268862 -3.52792 
21 5.95933e-07 -4.11185e-08 51.3317 -1.92268 -1.92142 -4.91117 0.000199119 -0.00437654 0.00142144 -3.53202 
22 4.01304e-07 -1.42881e-06 53.9138 -0.852249 -0.852278 -8.91766 -1.86914e-06 -4.93516e-05 -6.96843e-05 -3.48168 
23 8.71386e-07 -1.98378e-06 56.3885 1.68546 1.68548 1.8764 -3.47172e-05 4.44613e-05 2.71011e-06 -2.55581 
24 -1.23087e-07 -1.12453e-06 -53.8876 -2.60631 -2.60634 -6.54956 -2.36262e-05 2.48648e-05 -4.93366e-05 -3.40183 
25 1.02659e-07 -1.55837e-06 -51.3239 -2.07981 -2.08196 -5.60197 -0.000275216 -0.0057615 0.00235493 -3.52877 
26 0.00158478 -0.000638793 -48.7469 -2.76688 -2.74401 -6.23045 0.00144431 0.0990217 -0.0399529 -3.5261 
27 0.00353677 -0.00146457 -46.1661 -3.10221 -3.06804 -6.43809 0.00237806 0.0858516 -0.0372059 -3.5265 
28 0.00466418 -0.00208197 -43.5844 -3.38131 -3.34281 -6.69448 0.00374534 0.0795283 -0.0329475 -3.52608 
29 0.00525172 -0.00253454 -41.0037 -3.63091 -3.5922 -6.97621 0.00410551 0.0779761 -0.0280111 -3.5255 
30 0.00549488 -0.00285259 -38.4246 -3.87591 -3.83619 -7.27848 0.00516541 0.0781502 -0.0232598 -3.52468 
31 0.00552204 -0.00303905 -35.8476 -4.11786 -4.0766 -7.59604 0.0051443 0.0785489 -0.0196114 -3.52364 
32 0.00539129 -0.00310048 -33.2733 -4.34587 -4.30488 -7.91878 0.00549995 0.078538 -0.0168174 -3.52243 
33 0.00512055 -0.00303636 -30.7019 -4.55179 -4.50739 -8.23316 0.00439859 0.077086 -0.0156852 -3.52115 
34 0.00471613 -0.00285372 -28.1338 -4.72231 -4.67763 -8.51793 0.00358976 0.0755111 -0.0163162 -3.51994 
35 0.00417652 -0.00258442 -25.5687 -4.85928 -4.81275 -8.76469 0.00134448 0.0743579 -0.018374 -3.51885 
36 0.00351197 -0.00226708 -23.0064 -4.9631 -4.91751 -8.97187 -0.00181787 0.0740768 -0.0220605 -3.51793 
37 0.00273474 -0.00193407 -20.4464 -5.03949 -4.99533 -9.13411 -0.00510649 0.0761278 -0.0265199 -3.51719 
38 0.0018804 -0.00161311 -17.8882 -5.09371 -5.05285 -9.26022 -0.00766371 0.0808464 -0.0313818 -3.51661 
39 0.000982848 -0.00131724 -15.3316 -5.13364 -5.09631 -9.35847 -0.0108473 0.0862127 -0.0353021 -3.51615 
40 7.30618e-05 -0.00105552 -12.7762 -5.15997 -5.1273 -9.42996 -0.0134076 0.0917201 -0.0381837 -3.51581 
41 -0.000817559 -0.00083702 -10.2216 -5.17625 -5.14847 -9.48096 -0.0152657 0.0977552 -0.0404035 -3.51557 
42 -0.00167437 -0.000659303 -7.66762 -5.18585 -5.16256 -9.51392 -0.0164438 0.102819 -0.0416219 -3.51541 
43 -0.00248728 -0.000515462 -5.11402 -5.18999 -5.17134 -9.53444 -0.0174437 0.107127 -0.0418315 -3.51531 
44 -0.00325274 -0.000391292 -2.56071 -5.18956 -5.17525 -9.54383 -0.0179968 0.109934 -0.041455 -3.51526 
45 0.0915398 2.15975 1.26891 -4.05584 -5.1388 -3.83704 -0.0686362 -0.409219 0.010116 -3.5291 
46 0.0647474 2.16079 3.82221 -4.0499 -5.13659 -3.82511 -0.054097 -0.409196 0.000536853 -3.52912 
47 0.0379997 2.16147 6.37578 -4.04672 -5.13493 -3.80532 -0.0395159 -0.409568 -0.0090586 -3.52913 
48 0.0112901 2.16184 8.92973 -4.04542 -5.12759 -3.77733 -0.0247971 -0.410332 -0.0193008 -3.52916 
49 -0.0153622 2.16185 11.4842 -4.0452 -5.12142 -3.73775 -0.0101499 -0.410936 -0.029848 -3.52919 
50 -0.0419339 2.16157 14.0395 -4.04849 -5.10717 -3.68558 0.00436081 -0.411655 -0.041652 -3.52924 
51 -0.0684022 2.16096 16.5957 -4.05171 -5.09117 -3.6199 0.0179216 -0.412289 -0.0553078 -3.52929 
52 -0.0947239 2.16005 19.1531 -4.0575 -5.06654 -3.53532 0.0307643 -0.412683 -0.0699722 -3.52935 
53 -0.120888 2.15883 21.7121 -4.06313 -5.03343 -3.42779 0.0416908 -0.412921 -0.0868973 -3.52944 
54 -0.146893 2.1573 24.273 -4.06756 -4.98633 -3.29217 0.0509596 -0.413132 -0.106515 -3.52955 
55 -0.172718 2.15551 26.8363 -4.06171 -4.91834 -3.12448 0.0577173 -0.412691 -0.128444 -3.5297 
56 -0.198346 2.15348 29.4024 -4.04177 -4.82239 -2.92322 0.0615178 -0.411594 -0.150447 -3.5299 
57 -0.223763 2.15129 31.9716 -3.99174 -4.69241 -2.68933 0.0631475 -0.409508 -0.169607 -3.53016 
58 -0.248936 2.14901 34.5441 -3.89926 -4.52002 -2.43224 0.062889 -0.406666 -0.181966 -3.53052 
59 -0.273821 2.14666 37.1198 -3.76135 -4.31435 -2.16525 0.0623166 -0.402331 -0.186888 -3.53092 
60 -0.298342 2.1442 39.6981 -3.58259 -4.08591 -1.89889 0.0626797 -0.395894 -0.191136 -3.53134 
61 -0.322438 2.14148 42.2787 -3.37806 -3.85003 -1.63645 0.0655131 -0.387403 -0.199953 -3.53169 
62 -0.346086 2.13844 44.8613 -3.15601 -3.59859 -1.36406 0.068463 -0.377027 -0.219645 -3.53197 
63 -0.369324 2.13528 47.446 -2.88621 -3.28525 -1.07704 0.0690855 -0.365041 -0.242683 -3.53226 
64 -0.392512 2.13371 50.032 -2.41521 -2.79848 -0.474447 0.0502805 -0.397938 -0.210813 -3.53325 
65 -0.418483 2.1304 52.6263 -1.76578 -2.00505 -0.560998 0.0454631 -0.308854 -0.730106 -3.52456 
66 -0.44812 2.14653 55.1778 6.97687 7.73852 2.43075 0.0330813 -0.597295 1.77009 -3.02528 
67 0.649859 2.05055 -55.162 1.38961 0.842603 -0.677804 -0.188234 -0.0991863 1.20773 -3.26036 
68 0.633027 2.08274 -52.6122 -1.11281 -2.21908 -0.458073 -0.374622 -0.489091 -0.161581 -3.53568 
69 0.607028 2.08678 -50.0319 -2.00959 -2.58741 -0.906536 -0.152741 -0.408617 0.0813175 -3.53403 
70 0.583936 2.08816 -47.454 -2.6989 -3.10205 -1.27462 -0.130042 -0.360742 0.157522 -3.53287 
71 0.560949 2.09155 -44.8726 -3.12987 -3.46921 -1.4331 -0.108374 -0.363822 0.201301 -3.5322 
72 0.537417 2.09574 -42.2913 -3.43201 -3.75097 -1.65781 -0.0970799 -0.372247 0.214215 -3.53176 
73 0.513303 2.10018 -39.7112 -3.67655 -4.00528 -1.90463 -0.0945169 -0.381266 0.221596 -3.53132 
74 0.488654 2.10478 -37.1331 -3.87951 -4.23937 -2.16419 -0.0974134 -0.389797 0.227723 -3.53088 
75 0.463548 2.10953 -34.5575 -4.0368 -4.45073 -2.42945 -0.105328 -0.39686 0.228549 -3.53046 
76 0.438063 2.11447 -31.9849 -4.14549 -4.62928 -2.68895 -0.116696 -0.403036 0.22166 -3.53008 
77 0.412243 2.1195 -29.4155 -4.20727 -4.77167 -2.92763 -0.128747 -0.408652 0.206276 -3.52979 
78 0.386138 2.12455 -26.8493 -4.23225 -4.87545 -3.13709 -0.139176 -0.41325 0.184884 -3.52958 
79 0.359779 2.12946 -24.286 -4.23136 -4.9532 -3.31446 -0.146864 -0.416332 0.160908 -3.52943 
80 0.333221 2.13412 -21.7252 -4.21566 -5.00822 -3.45768 -0.150681 -0.417164 0.137669 -3.52932 
81 0.306512 2.13847 -19.1665 -4.19176 -5.04699 -3.56924 -0.151014 -0.416869 0.115627 -3.52925 
82 0.2797 2.14244 -16.6094 -4.1671 -5.0758 -3.65511 -0.147384 -0.416195 0.0960285 -3.5292 
83 0.252817 2.14604 -14.0536 -4.14314 -5.09667 -3.72111 -0.140823 -0.415013 0.0787872 -3.52916 
84 0.225901 2.14927 -11.4987 -4.12235 -5.11158 -3.76956 -0.13172 -0.413293 0.0644007 -3.52913 
85 0.198983 2.15209 -8.94455 -4.10287 -5.12356 -3.80229 -0.121432 -0.412029 0.0512878 -3.52911 
86 0.172081 2.15455 -6.39087 -4.08697 -5.12997 -3.82474 -0.109197 -0.410788 0.0398614 -3.52911 
87 0.145213 2.15663 -3.8375 -4.074 -5.13576 -3.83709 -0.0965008 -0.409759 0.0295202 -3.5291 
88 0.118367 2.15838 -1.28429 -4.06365 -5.13754 -3.84073 -0.0827819 -0.409362 0.0197497 -3.5291 
89 0.21414 4.32642 -0.00756052 -3.39295 -4.74729 -3.3023 -0.0911608 -0.896422 0.0491783 -3.5337 
90 0.283804 6.49868 1.26911 -2.77912 -4.35427 -2.86632 -0.0912465 -1.32999 0.0613798 -3.53387 
91 2.20416 2.73672 -0.00569209 -3.3929 -3.53947 -3.06607 -0.430801 -0.295912 0.263747 -3.52982 
92 2.17024 2.76327 2.54751 -3.37758 -3.55161 -3.0592 -0.427075 -0.301709 0.256304 -3.52983 
93 2.28993 4.92788 1.27009 -2.72669 -3.57187 -2.74045 -0.355416 -0.775754 0.0326133 -3.53337 
94 4.2868 3.33614 1.2729 -3.40676 -2.89802 -2.73816 -0.507661 -0.189923 0.766638 -3.53335 
95 0.161116 4.32875 2.5455 -3.3879 -4.74864 -3.29605 -0.0731323 -0.896745 0.0309035 -3.53371 
96 0.108136 4.33037 5.09873 -3.38688 -4.75004 -3.28338 -0.0545441 -0.897169 0.0120847 -3.53371 
97 0.20452 6.50158 3.82197 -2.77729 -4.35735 -2.859 -0.0705726 -1.33098 0.0348173 -3.53387 
98 2.2295 4.95519 3.82324 -2.71669 -3.58294 -2.73139 -0.342412 -0.778175 0.0166356 -3.53337 
99 0.125279 6.50342 6.37502 -2.7804 -4.36143 -2.8471 -0.0499699 -1.33223 0.00774882 -3.53386 
100 4.24548 3.38782 3.82604 -3.39134 -2.91403 -2.72885 -0.510676 -0.204749 0.760326 -3.53336 
101 2.136 2.78935 5.10087 -3.36419 -3.56485 -3.04534 -0.421501 -0.307712 0.24864 -3.52983 
102 2.10146 2.81493 7.65454 -3.35295 -3.57955 -3.02481 -0.414159 -0.314524 0.240748 -3.52982 
103 2.16876 4.98164 6.37662 -2.70975 -3.59524 -2.71651 -0.327939 -0.781073 -9.13799e-05 -3.53337 
104 4.20351 3.43891 6.3794 -3.37774 -2.93253 -2.71336 -0.5116 -0.219755 0.753925 -3.53336 
105 0.0551976 4.33129 7.65227 -3.38986 -4.75148 -3.26468 -0.0361029 -0.898079 -0.00704758 -3.53371 
106 0.00231049 4.33154 10.2062 -3.39728 -4.75268 -3.23886 -0.0172065 -0.899282 -0.0277047 -3.5337 
107 0.0460949 6.50421 8.92841 -2.78801 -4.36776 -2.82974 -0.0289312 -1.33373 -0.0202858 -3.53384 
108 2.1077 5.00725 8.93034 -2.70678 -3.60915 -2.6953 -0.311735 -0.7848 -0.0177157 -3.53337 
109 -0.0330017 6.50394 11.4823 -2.80114 -4.37474 -2.80675 -0.00810002 -1.33601 -0.0502323 -3.53381 
110 4.16089 3.48939 8.9331 -3.36644 -2.9543 -2.69123 -0.510347 -0.235814 0.747425 -3.53336 
111 2.06662 2.84004 10.2086 -3.34408 -3.59451 -2.99533 -0.405184 -0.322146 0.231453 -3.52982 
112 2.0315 2.86465 12.7634 -3.33667 -3.61062 -2.95643 -0.393775 -0.330158 0.221873 -3.52981 
113 2.04636 5.03197 11.4846 -2.70745 -3.62436 -2.66485 -0.293492 -0.789107 -0.0373031 -3.53336 
114 4.11761 3.53924 11.4873 -3.35759 -2.97672 -2.66093 -0.506549 -0.252847 0.739295 -3.53336 
115 -0.0504775 4.33109 12.7608 -3.40774 -4.75222 -3.20274 0.00132467 -0.900014 -0.0492249 -3.53371 
116 -0.103151 4.32996 15.3162 -3.42519 -4.75167 -3.15776 0.0195026 -0.901266 -0.0737567 -3.5337 
117 -0.111965 6.5026 14.0367 -2.81972 -4.38339 -2.77579 0.0128934 -1.33844 -0.0824486 -3.53378 
118 1.98478 5.05579 14.0395 -2.71228 -3.64018 -2.62669 -0.273452 -0.794225 -0.0589286 -3.53335 
119 -0.190763 6.5002 16.592 -2.84354 -4.39263 -2.73487 0.0332584 -1.34051 -0.117798 -3.53374 
120 4.07373 3.58842 14.0421 -3.35179 -3.00366 -2.62121 -0.499865 -0.271313 0.729962 -3.53336 
121 1.99612 2.88874 15.3189 -3.33201 -3.6277 -2.90674 -0.38035 -0.339784 0.210573 -3.52979 
122 1.9605 2.9123 17.8755 -3.32991 -3.64221 -2.84089 -0.364807 -0.350131 0.19681 -3.52978 
123 1.92297 5.07868 16.5952 -2.7221 -3.6561 -2.57764 -0.251502 -0.799976 -0.0828531 -3.53334 
124 4.02923 3.63691 16.5979 -3.34943 -3.03276 -2.57069 -0.490363 -0.291565 0.719082 -3.53335 
125 -0.15566 4.32816 17.8725 -3.44604 -4.74851 -3.09803 0.0368948 -0.902401 -0.10041 -3.53369 
126 -0.207964 4.32567 20.4302 -3.4728 -4.74332 -3.02278 0.0534698 -0.90294 -0.130821 -3.53369 
127 -0.269333 6.49673 19.1483 -2.87619 -4.40274 -2.68518 0.0527059 -1.34304 -0.157471 -3.53368 
128 1.86097 5.10061 19.1522 -2.73688 -3.6722 -2.51242 -0.227391 -0.807416 -0.110585 -3.53333 
129 -0.347638 6.49219 21.7059 -2.91473 -4.41181 -2.61849 0.0712901 -1.3455 -0.201135 -3.53362 
130 3.98415 3.68464 19.1547 -3.3493 -3.06375 -2.50528 -0.477 -0.314565 0.705899 -3.53334 
131 1.92468 2.93529 20.4335 -3.32917 -3.6569 -2.75848 -0.346264 -0.362023 0.181457 -3.52975 
132 1.88865 2.95771 22.9932 -3.33016 -3.66704 -2.65641 -0.325449 -0.376301 0.163178 -3.52971 
133 1.79882 5.12155 21.7105 -2.75816 -3.68605 -2.4324 -0.201684 -0.817008 -0.142576 -3.5333 
134 3.9385 3.7316 21.713 -3.35208 -3.09664 -2.4238 -0.459524 -0.340619 0.689481 -3.53332 
135 -0.260052 4.32253 22.9895 -3.50431 -4.73004 -2.92693 0.0682385 -0.903241 -0.164961 -3.53369 
136 -0.311905 4.31874 25.5508 -3.5368 -4.70661 -2.80539 0.081209 -0.903477 -0.202643 -3.5337 
137 -0.425643 6.48661 24.2652 -2.95971 -4.41647 -2.53131 0.0884819 -1.34747 -0.25078 -3.53356 
138 1.73652 5.14149 24.2706 -2.78223 -3.69637 -2.33242 -0.173369 -0.828975 -0.179328 -3.53327 
139 -0.503313 6.48006 26.8265 -3.00758 -4.41178 -2.42037 0.104279 -1.34846 -0.30382 -3.5335 
140 3.89231 3.77774 24.2731 -3.35708 -3.12729 -2.32393 -0.438492 -0.370068 0.668541 -3.53328 
141 1.85246 2.97955 25.5549 -3.328 -3.66914 -2.52779 -0.301831 -0.39269 0.141252 -3.52967 
142 1.81616 3.00084 28.1192 -3.31828 -3.65689 -2.37057 -0.276188 -0.410214 0.117033 -3.52962 
143 1.67412 5.16046 26.8329 -2.80802 -3.69701 -2.20655 -0.143966 -0.842573 -0.219794 -3.53323 
144 3.84563 3.82307 26.8352 -3.3587 -3.15387 -2.19874 -0.413361 -0.403008 0.64379 -3.53324 
145 -0.363489 4.3144 28.1146 -3.56572 -4.66587 -2.6522 0.0917586 -0.902136 -0.242178 -3.53373 
146 -0.414778 4.30966 30.6813 -3.58001 -4.59656 -2.46528 0.0990587 -0.899591 -0.281202 -3.53383 
147 -0.580598 6.47272 29.3903 -3.05345 -4.3896 -2.27709 0.117725 -1.34772 -0.358684 -3.53348 
148 1.61171 5.17857 29.3979 -2.82836 -3.68389 -2.05307 -0.113784 -0.857528 -0.26225 -3.53318 
149 -0.657456 6.46483 31.9572 -3.08544 -4.34047 -2.09904 0.12803 -1.345 -0.411276 -3.5335 
150 3.79859 3.86762 29.4 -3.35432 -3.17017 -2.04621 -0.38581 -0.438223 0.615779 -3.53318 
151 1.77984 3.02167 30.6864 -3.29125 -3.62265 -2.18396 -0.249669 -0.426856 0.0930089 -3.52957 
152 1.74366 3.0422 33.2568 -3.23567 -3.55436 -1.96786 -0.225312 -0.439348 0.0729693 -3.52956 
153 1.5494 5.19603 31.9658 -2.83586 -3.64696 -1.87219 -0.0862652 -0.872153 -0.302221 -3.53312 
154 3.75139 3.91152 31.9678 -3.33172 -3.1646 -1.86708 -0.357473 -0.471084 0.586842 -3.53313 
155 -0.465739 4.30469 33.2513 -3.56524 -4.49004 -2.24743 0.102878 -0.895976 -0.3135 -3.53399 
156 -0.516327 4.2997 35.8247 -3.504 -4.33499 -2.00394 0.103676 -0.890936 -0.334988 -3.53426 
157 -0.733848 6.45677 34.5275 -3.08612 -4.24455 -1.88397 0.134479 -1.34032 -0.452787 -3.53364 
158 1.48737 5.21317 34.537 -2.81244 -3.57379 -1.66541 -0.0634281 -0.882134 -0.33298 -3.5331 
159 -0.809707 6.44892 37.1014 -3.03474 -4.09075 -1.64326 0.137566 -1.33173 -0.479185 -3.53391 
160 3.70436 3.95501 34.5388 -3.27803 -3.12532 -1.66086 -0.332148 -0.496915 0.561784 -3.53309 
161 1.70783 3.06263 35.8306 -3.13554 -3.44257 -1.73168 -0.20471 -0.444222 0.0612139 -3.52962 
162 1.67248 3.08306 38.4074 -2.9868 -3.28332 -1.48469 -0.190184 -0.440639 0.057758 -3.52979 
163 1.42586 5.23041 37.1116 -2.73878 -3.45167 -1.43572 -0.0477599 -0.882814 -0.348127 -3.53316 
164 3.65785 3.99837 37.1132 -3.17424 -3.03481 -1.43234 -0.313096 -0.510228 0.546055 -3.53315 
165 -0.566453 4.29476 38.4013 -3.38651 -4.1344 -1.75203 0.103781 -0.881874 -0.347189 -3.53461 
166 -0.615987 4.28967 40.9805 -3.22178 -3.90521 -1.50505 0.103842 -0.86881 -0.359257 -3.53495 
167 -0.884904 6.44134 39.6786 -2.92023 -3.87761 -1.397 0.136801 -1.31746 -0.493276 -3.53428 
168 1.36511 5.24789 39.6892 -2.60664 -3.27709 -1.19872 -0.0406269 -0.871834 -0.350812 -3.53333 
169 -0.959297 6.43375 42.2581 -2.75092 -3.62448 -1.16338 0.135417 -1.29796 -0.507084 -3.53463 
170 3.61213 4.04173 39.6906 -3.01093 -2.89132 -1.19713 -0.300018 -0.511798 0.538941 -3.53332 
171 1.63767 3.10339 40.9867 -2.79856 -3.08875 -1.23333 -0.179815 -0.434497 0.0544866 -3.53002 
172 1.60334 3.1235 43.5681 -2.57957 -2.86297 -0.97768 -0.171419 -0.431313 0.0431689 -3.5303 
173 1.30521 5.26549 42.2691 -2.42255 -3.05742 -0.963828 -0.0395486 -0.856009 -0.356156 -3.53358 
174 3.56716 4.08502 42.2704 -2.79518 -2.70053 -0.963275 -0.291333 -0.511681 0.528977 -3.53357 
175 -0.664881 4.28427 43.5615 -3.02071 -3.65702 -1.25966 0.106249 -0.852608 -0.379112 -3.53526 
176 -0.713246 4.2785 46.1441 -2.7965 -3.38608 -0.996623 0.108703 -0.834377 -0.413744 -3.53552 
177 -1.03292 6.42597 44.8389 -2.53529 -3.33799 -0.947652 0.134566 -1.2755 -0.526121 -3.53498 
178 1.24605 5.28305 44.8505 -2.19159 -2.79919 -0.731 -0.0418287 -0.843722 -0.375107 -3.5339 
179 -1.10609 6.4183 47.4201 -2.27707 -3.00897 -0.759685 0.134889 -1.25378 -0.541952 -3.53532 
180 3.52279 4.12816 44.8517 -2.53468 -2.47222 -0.738947 -0.285141 -0.518467 0.507554 -3.53387 
181 1.56934 3.14336 46.1513 -2.33723 -2.61153 -0.701087 -0.164959 -0.438343 0.0154815 -3.53056 
182 1.53565 3.1634 48.7362 -2.07083 -2.35062 -0.330823 -0.177959 -0.456481 -0.0220275 -3.53019 
183 1.18722 5.30059 47.4328 -1.92541 -2.49843 -0.499419 -0.0585898 -0.847666 -0.420005 -3.53415 
184 3.47879 4.17121 47.4336 -2.22419 -2.21517 -0.530701 -0.281913 -0.54223 0.46358 -3.53407 
185 -0.761421 4.27342 48.7282 -2.58299 -3.06099 -0.649157 0.10031 -0.816473 -0.421998 -3.53522 
186 -0.811621 4.26877 51.3169 -1.98849 -2.35004 0.317754 0.0838471 -0.844194 -0.653164 -3.53803 
187 -1.17889 6.41384 50.0002 -2.04489 -2.54057 -0.322574 0.0770003 -1.26201 -0.621186 -3.53575 
188 1.12775 5.31799 50.0156 -1.56316 -2.07174 -0.00955046 -0.106658 -0.933644 -0.590201 -3.53487 
189 -1.25707 6.40546 52.5877 -1.61249 -2.48672 0.643416 0.176026 -1.31662 -0.612759 -3.53281 
190 3.43505 4.21346 50.0156 -1.75362 -1.84736 -0.031015 -0.306358 -0.658318 0.316365 -3.53492 
191 1.50027 3.18358 51.3264 -1.43149 -1.70061 0.661815 -0.172621 -0.550809 -0.132742 -3.5327 
192 1.46587 3.20964 53.9052 0.0266569 0.953931 -0.796012 0.566268 -0.561077 0.138841 -3.37565 
193 1.06597 5.33731 52.6041 -1.24922 -1.89861 0.441327 -0.237044 -0.801239 -0.410742 -3.52778 
194 3.38747 4.26008 52.6041 -1.41008 -1.71383 0.389655 -0.390562 -0.639313 0.58751 -3.52746 
195 -0.866323 4.2769 53.8949 -0.0507224 -0.206249 -1.18023 0.0794192 -1.26168 1.02745 -3.38132 
196 1.3298 4.1174 -56.3442 5.06946 2.90545 1.60236 -1.25481 -0.27388 0.110283 -2.79034 
197 -1.33605 6.40133 55.1665 4.17974 2.79764 1.28988 0.319872 -1.52325 0.198061 -3.26107 
198 1.00488 5.36129 55.1754 5.64246 6.63199 2.70795 0.370034 -0.636414 -0.0323898 -3.15047 
199 1.98371 6.26223 -55.1334 6.94 9.11551 2.92939 0.134154 -0.847928 -0.525739 -3.02309 
200 3.34328 4.30996 55.1754 5.5307 7.35806 2.86931 0.118641 -0.278495 0.56277 -3.15115 
201 2.87095 2.09325 -56.362 4.04255 6.00651 1.88118 -3.16456 0.252728 0.341867 -2.79939 
202 2.84551 2.1252 -53.8874 0.16516 0.763377 -3.02659 -0.982037 -0.732799 -0.162343 -3.51266 
203 3.53831 4.21674 -55.1525 6.03168 6.27394 1.7592 0.302428 -1.21945 -0.044466 -3.14331 
204 5.07312 2.13635 -55.1525 6.04997 7.0389 2.00301 0.44604 -0.528099 0.0805795 -3.14511 
205 1.29262 4.16451 -53.8815 0.861181 -0.347994 -3.6754 -0.408747 -0.573907 0.838995 -3.51412 
206 1.24176 4.17585 -51.3147 -1.28834 -1.91267 -0.38596 -0.214936 -0.883808 0.219532 -3.53909 
207 1.90264 6.26187 -52.5941 -0.918573 -1.45699 -0.573108 -0.18423 -1.16816 0.819946 -3.52793 
208 3.4607 4.22944 -52.6036 -0.749779 -0.926245 0.0947411 -0.677589 -0.496363 0.191149 -3.5302 
209 1.82403 6.27282 -50.0101 -1.64656 -2.34518 -0.28429 -0.188434 -1.25978 0.436612 -3.5368 
210 5.01221 2.17771 -52.6036 -1.34254 -0.349085 0.0539283 -0.502663 0.0189542 0.991386 -3.52954 
211 2.80522 2.14769 -51.32 -1.10468 -0.94848 -0.128965 -0.278697 -0.336448 0.262654 -3.53417 
212 2.77334 2.17446 -48.7409 -2.00571 -1.85561 -0.59183 -0.295684 -0.169344 0.354412 -3.53084 
213 3.40036 4.25787 -50.02 -1.44836 -1.66942 -0.171116 -0.41335 -0.684557 0.296131 -3.53492 
214 4.971 2.23184 -50.02 -1.86395 -1.28439 -0.141183 -0.298484 0.0439805 0.840745 -3.53496 
215 1.19089 4.18045 -48.7358 -2.2212 -2.7806 -0.83009 -0.185666 -0.80663 0.288846 -3.5364 
216 1.14309 4.18648 -46.1549 -2.69629 -3.21141 -1.02713 -0.170251 -0.803983 0.405641 -3.53604 
217 1.75089 6.27885 -47.4311 -2.14518 -2.84756 -0.720134 -0.220107 -1.21581 0.552035 -3.5359 
218 3.34706 4.28742 -47.4418 -1.92967 -2.21371 -0.611677 -0.303046 -0.601465 0.351201 -3.53417 
219 1.67845 6.29067 -44.8504 -2.52713 -3.20516 -0.908528 -0.208895 -1.22397 0.608907 -3.53534 
220 4.93669 2.2842 -47.4409 -2.35317 -1.79323 -0.583407 -0.212272 0.143053 0.87091 -3.53421 
221 2.74508 2.20157 -46.1603 -2.41937 -2.27467 -0.788534 -0.233076 -0.123075 0.403316 -3.53074 
222 2.718 2.23006 -43.5789 -2.74054 -2.59242 -1.0018 -0.216679 -0.119878 0.421444 -3.53036 
223 3.29505 4.31954 -44.8615 -2.28447 -2.57509 -0.763327 -0.263694 -0.596951 0.383749 -3.53392 
224 4.90521 2.33708 -44.8604 -2.70851 -2.14495 -0.760573 -0.177499 0.171427 0.900697 -3.53391 
225 1.09528 4.19491 -43.5735 -3.04235 -3.5288 -1.25367 -0.157012 -0.817158 0.430409 -3.53552 
226 1.04688 4.20405 -40.9929 -3.30711 -3.8008 -1.49326 -0.153888 -0.834605 0.437348 -3.53507 
227 1.60571 6.30412 -42.2698 -2.81684 -3.50905 -1.13437 -0.209189 -1.24607 0.624345 -3.53484 
228 3.24347 4.35313 -42.2809 -2.56559 -2.86851 -0.965675 -0.247243 -0.605505 0.39942 -3.53359 
229 1.5321 6.31826 -39.6905 -3.03014 -3.77467 -1.37573 -0.217112 -1.26886 0.628575 -3.53438 
230 4.87478 2.39092 -42.2797 -3.00028 -2.42372 -0.967437 -0.166734 0.176973 0.924386 -3.53357 
231 2.69096 2.25932 -40.9981 -3.00092 -2.84968 -1.2322 -0.213505 -0.122754 0.434829 -3.53004 
232 2.66364 2.28924 -38.419 -3.21617 -3.06249 -1.47419 -0.218233 -0.12525 0.446532 -3.52978 
233 3.19171 4.3878 -39.7013 -2.78669 -3.1048 -1.19023 -0.242118 -0.614775 0.408936 -3.53331 
234 4.84455 2.44578 -39.7001 -3.24051 -2.63758 -1.19312 -0.167488 0.177985 0.945902 -3.53329 
235 0.997688 4.21351 -38.414 -3.50953 -4.04296 -1.74229 -0.158384 -0.850382 0.44021 -3.53465 
236 0.947737 4.22325 -35.8374 -3.65093 -4.25077 -1.99404 -0.169203 -0.864014 0.435926 -3.53427 
237 1.4575 6.33296 -37.1133 -3.17259 -3.99564 -1.6269 -0.229556 -1.28779 0.62414 -3.53397 
238 3.13959 4.42347 -37.1238 -2.94958 -3.28608 -1.42498 -0.246811 -0.624445 0.411339 -3.53311 
239 1.382 6.34822 -34.5393 -3.24505 -4.16274 -1.87169 -0.242265 -1.30326 0.606348 -3.53365 
240 4.8143 2.50167 -37.1224 -3.43012 -2.79162 -1.42504 -0.178865 0.175357 0.960394 -3.5331 
241 2.63602 2.31977 -35.8421 -3.38534 -3.22907 -1.71757 -0.230466 -0.129567 0.452827 -3.5296 
242 2.60816 2.35085 -33.2681 -3.50712 -3.34643 -1.95526 -0.250251 -0.139272 0.449613 -3.52951 
243 3.08709 4.46002 -34.5491 -3.05178 -3.40919 -1.65404 -0.259765 -0.638763 0.399754 -3.53303 
244 4.78403 2.55846 -34.5475 -3.56088 -2.88579 -1.6529 -0.20011 0.162722 0.96134 -3.53302 
245 0.897154 4.23329 -33.2639 -3.73031 -4.41538 -2.24037 -0.182047 -0.874901 0.421614 -3.53396 
246 0.846035 4.24353 -30.6937 -3.75673 -4.53552 -2.46725 -0.194222 -0.883199 0.395371 -3.53376 
247 1.30575 6.36392 -31.9688 -3.2554 -4.27354 -2.09409 -0.252703 -1.315 0.571941 -3.53347 
248 3.03414 4.49716 -31.9776 -3.0994 -3.483 -1.86657 -0.280251 -0.658122 0.373939 -3.53303 
249 1.22886 6.3797 -29.4018 -3.22435 -4.33769 -2.28417 -0.258226 -1.32304 0.525661 -3.53341 
250 4.75359 2.61589 -31.9759 -3.63978 -2.93187 -1.86649 -0.230367 0.138026 0.949918 -3.53301 
251 2.58 2.38231 -30.6973 -3.58023 -3.42231 -2.17746 -0.276272 -0.155208 0.436885 -3.52949 
252 2.55142 2.41388 -28.1297 -3.61413 -3.46306 -2.3743 -0.304571 -0.175295 0.416922 -3.52952 
253 2.98062 4.53448 -29.4094 -3.10379 -3.52062 -2.05589 -0.304506 -0.679611 0.338207 -3.53308 
254 4.72275 2.67362 -29.4075 -3.67582 -2.94357 -2.05577 -0.266022 0.1039 0.930027 -3.53305 
255 0.794463 4.25375 -28.127 -3.74286 -4.61514 -2.66161 -0.203316 -0.889719 0.360149 -3.53366 
256 0.742499 4.2637 -25.5632 -3.70602 -4.66623 -2.82277 -0.208505 -0.894264 0.320291 -3.53361 
257 1.15143 6.39515 -26.838 -3.16968 -4.36967 -2.43662 -0.259411 -1.32784 0.472036 -3.53342 
258 2.92639 4.57158 -26.8443 -3.08001 -3.53772 -2.21797 -0.32936 -0.700715 0.298366 -3.53313 
259 1.07355 6.40991 -24.2769 -3.10518 -4.38124 -2.55695 -0.255877 -1.33001 0.417276 -3.53348 
260 4.69124 2.73133 -26.8422 -3.68091 -2.9359 -2.21807 -0.303153 0.0652114 0.906149 -3.5331 
261 2.52233 2.44535 -25.5652 -3.62051 -3.4846 -2.54261 -0.333239 -0.196682 0.393789 -3.52957 
262 2.49268 2.47652 -23.0033 -3.60808 -3.49209 -2.67881 -0.358998 -0.215773 0.371679 -3.52962 
263 2.87143 4.60813 -24.282 -3.04012 -3.54194 -2.35027 -0.351017 -0.718723 0.259129 -3.53319 
264 4.65887 2.7888 -24.2797 -3.66656 -2.91928 -2.35152 -0.338693 0.027563 0.882526 -3.53315 
265 0.690231 4.27318 -23.0021 -3.65667 -4.69751 -2.9518 -0.209174 -0.896398 0.280153 -3.5336 
266 0.637726 4.28202 -20.443 -3.60635 -4.71529 -3.05317 -0.205056 -0.897327 0.242763 -3.53361 
267 0.995317 6.42376 -21.7179 -3.04135 -4.38209 -2.64785 -0.24812 -1.33048 0.36522 -3.53355 
268 2.81576 4.64396 -21.7219 -2.99398 -3.54098 -2.45618 -0.368529 -0.733122 0.222828 -3.53323 
269 0.916811 6.43654 -19.1607 -2.98238 -4.37729 -2.71518 -0.236957 -1.33027 0.317517 -3.53363 
270 4.62557 2.84588 -21.7195 -3.64119 -2.89984 -2.45609 -0.370972 -0.00799412 0.860674 -3.5332 
271 2.46246 2.50731 -20.4437 -3.5841 -3.49456 -2.78783 -0.38047 -0.231546 0.351632 -3.52967 
272 2.43169 2.53764 -17.8858 -3.55731 -3.49499 -2.87308 -0.39797 -0.244985 0.333962 -3.52971 
273 2.7594 4.67895 -19.1637 -2.94755 -3.53817 -2.53922 -0.381068 -0.743983 0.190629 -3.53327 
274 4.59131 2.90249 -19.1612 -3.6109 -2.88476 -2.54107 -0.399305 -0.039542 0.841844 -3.53323 
275 0.585042 4.29015 -17.8858 -3.55881 -4.72632 -3.13113 -0.197321 -0.897662 0.209156 -3.53363 
276 0.532218 4.29754 -15.3298 -3.51712 -4.73253 -3.18851 -0.186985 -0.897293 0.179227 -3.53365 
277 0.838072 6.4482 -16.6049 -2.93286 -4.37172 -2.76728 -0.223233 -1.32996 0.27509 -3.53368 
278 2.70241 4.71307 -16.607 -2.90426 -3.53718 -2.60395 -0.389045 -0.752074 0.162761 -3.5333 
279 0.759137 6.45872 -14.05 -2.88986 -4.36437 -2.80398 -0.207134 -1.32938 0.236972 -3.53374 
280 4.5561 2.95859 -16.6044 -3.57825 -2.87204 -2.60642 -0.423351 -0.0669326 0.826013 -3.53326 
281 2.40042 2.5675 -15.3294 -3.5275 -3.49759 -2.93798 -0.411463 -0.256269 0.319417 -3.52974 
282 2.36867 2.59689 -12.774 -3.50005 -3.50149 -2.98787 -0.42117 -0.264996 0.307283 -3.52976 
283 2.64484 4.74632 -14.0514 -2.86456 -3.53656 -2.65361 -0.392482 -0.758655 0.138147 -3.53332 
284 4.51998 3.01417 -14.0488 -3.5464 -2.86481 -2.65324 -0.443573 -0.0907261 0.813097 -3.53329 
285 0.479277 4.30419 -12.7749 -3.48269 -4.73784 -3.23102 -0.173693 -0.896851 0.152534 -3.53366 
286 0.426282 4.31008 -10.2206 -3.454 -4.74056 -3.26242 -0.159257 -0.896819 0.128101 -3.53368 
287 0.680071 6.46811 -11.4959 -2.85601 -4.36014 -2.83069 -0.189709 -1.32877 0.202416 -3.53378 
288 2.58674 4.7787 -11.4968 -2.83003 -3.53938 -2.69056 -0.392354 -0.763179 0.117067 -3.53333 
289 0.600899 6.47638 -8.94243 -2.82923 -4.35662 -2.84937 -0.171243 -1.32864 0.170658 -3.53381 
290 4.483 3.06921 -11.4941 -3.51758 -2.86167 -2.68975 -0.460771 -0.110832 0.802169 -3.53331 
291 2.3365 2.6258 -10.2195 -3.4741 -3.50619 -3.02299 -0.427768 -0.272467 0.296237 -3.52978 
292 2.30393 2.65423 -7.66563 -3.45039 -3.51259 -3.04577 -0.431416 -0.279065 0.286842 -3.5298 
293 2.52817 4.81022 -8.94283 -2.80166 -3.54335 -2.71589 -0.38928 -0.76668 0.0979089 -3.53334 
294 4.44522 3.1237 -8.94007 -3.4901 -2.86267 -2.71504 -0.474565 -0.129131 0.793014 -3.53332 
295 0.373252 4.31523 -7.66698 -3.43128 -4.7432 -3.2841 -0.143028 -0.896321 0.106848 -3.53368 
296 0.320215 4.31967 -5.11368 -3.41386 -4.74484 -3.29637 -0.126275 -0.896088 0.0866496 -3.53369 
297 0.521667 6.48356 -6.3893 -2.80917 -4.3539 -2.86129 -0.151795 -1.32871 0.142015 -3.53384 
298 2.46918 4.84089 -6.38929 -2.77698 -3.54815 -2.73154 -0.383684 -0.769011 0.0806274 -3.53335 
299 0.442395 6.48967 -3.83641 -2.79436 -4.35219 -2.86755 -0.13208 -1.32876 0.114354 -3.53386 
300 4.40668 3.17764 -6.38651 -3.46536 -2.86717 -2.73032 -0.485963 -0.145318 0.785195 -3.53333 
301 2.27102 2.68219 -5.11213 -3.42912 -3.5201 -3.06002 -0.433186 -0.284752 0.278532 -3.52981 
302 2.23776 2.70969 -2.55886 -3.40993 -3.52898 -3.06649 -0.432923 -0.290162 0.271319 -3.52982 
303 2.4098 4.87072 -3.83605 -2.75658 -3.55444 -2.74062 -0.376099 -0.771298 0.0643856 -3.53336 
304 4.36741 3.23103 -3.83325 -3.44382 -2.87433 -2.73892 -0.495163 -0.16073 0.778547 -3.53334 
305 0.267178 4.3234 -2.56057 -3.40121 -4.74599 -3.30218 -0.108957 -0.896019 0.0679634 -3.5337 
306 0.363104 6.49471 -1.28365 -2.78477 -4.35277 -2.86947 -0.11193 -1.32928 0.0876774 -3.53386 
307 2.35004 4.89972 -1.28297 -2.74023 -3.56245 -2.74362 -0.366709 -0.773531 0.0484569 -3.53336 
308 4.32745 3.28387 -1.28016 -3.42452 -2.88485 -2.7417 -0.502459 -0.175375 0.772434 -3.53335 
309 2.43468 7.09174 -0.00627889 -2.21573 -3.36365 -2.41202 -0.325874 -1.18332 -0.167372 -3.53293 
310 0.432867 8.66944 -0.00693527 -2.2518 -4.02969 -2.50247 -0.110611 -1.72123 0.0956799 -3.53361 
311 0.327217 8.674 2.54549 -2.24906 -4.03275 -2.49817 -0.0884135 -1.72269 0.0615754 -3.53361 