ITEM: TIMESTEP
0
ITEM: NUMBER OF ATOMS
37664
ITEM: BOX BOUNDS ff ff ff
-100 100
-100 100
-156.15 156.15
ITEM: ATOMS id x y z v_peratom_sxx v_peratom_syy v_peratom_szz v_peratom_sxy v_peratom_sxz v_peratom_syz c_atomPE 
1 -0.00132438 -9.69922e-05 -0.00210853 -5.17748 -5.1743 -9.54692 -0.00614408 0.037097 -0.013568 -3.51522 
2 -0.00155127 -6.89609e-05 2.55097 -5.17317 -5.1714 -9.53971 -0.00617863 0.0371213 -0.0132174 -3.51525 
3 -0.00176667 -4.18681e-05 5.10426 -5.16493 -5.16454 -9.52403 -0.00605215 0.0366748 -0.0126642 -3.51532 
4 -0.00196897 -1.39291e-05 7.65775 -5.1516 -5.15257 -9.49481 -0.00586492 0.0359184 -0.0120432 -3.51546 
5 -0.00215753 1.51968e-05 10.2118 -5.13371 -5.13618 -9.4553 -0.00556362 0.0348861 -0.0112895 -3.51564 
6 -0.00232792 5.28564e-05 12.7664 -5.10993 -5.11336 -9.40146 -0.0054303 0.0336468 -0.0104475 -3.51589 
7 -0.00247666 9.86468e-05 15.3219 -5.07774 -5.08253 -9.32726 -0.00498341 0.0323422 -0.00938834 -3.51623 
8 -0.00259383 0.000154055 17.8784 -5.0352 -5.04147 -9.23564 -0.00472329 0.0312231 -0.00808951 -3.51665 
9 -0.00267796 0.000221477 20.4364 -4.9805 -4.98753 -9.11406 -0.00449415 0.0302091 -0.00676406 -3.5172 
10 -0.00272469 0.000297456 22.9961 -4.90759 -4.91591 -8.96109 -0.00414879 0.0291289 -0.00562208 -3.51789 
11 -0.0027326 0.000375887 25.558 -4.81204 -4.82141 -8.76855 -0.00394456 0.0281916 -0.00455207 -3.51874 
12 -0.00269951 0.000453014 28.1226 -4.68676 -4.69691 -8.53231 -0.00363375 0.0273164 -0.00356927 -3.51977 
13 -0.00262598 0.000521544 30.6902 -4.5267 -4.53778 -8.25619 -0.00368504 0.026476 -0.00318186 -3.52096 
14 -0.00250937 0.000570439 33.261 -4.32937 -4.34099 -7.94437 -0.00341274 0.0256727 -0.00314625 -3.52226 
15 -0.00234542 0.000593917 35.835 -4.1042 -4.116 -7.61681 -0.00327036 0.0250648 -0.00348657 -3.52353 
16 -0.00213133 0.000590477 38.4119 -3.86595 -3.87783 -7.28976 -0.00323241 0.0246321 -0.00419094 -3.52463 
17 -0.00185521 0.000552436 40.9912 -3.62668 -3.6383 -6.97138 -0.00285722 0.0245338 -0.0050372 -3.52552 
18 -0.00149934 0.000470994 43.5728 -3.38732 -3.3984 -6.65033 -0.00259822 0.0249113 -0.00612277 -3.52625 
19 -0.00103784 0.000340046 46.1567 -3.12323 -3.13302 -6.28728 -0.00230181 0.0260977 -0.00739295 -3.52699 
20 -0.000438461 0.000143034 48.7434 -2.74142 -2.74693 -5.84868 -0.00111833 0.0276759 -0.00896177 -3.52786 
21 5.95933e-07 -4.11185e-08 51.3317 -1.92312 -1.9227 -4.91634 7.44765e-05 -0.00145467 0.000462587 -3.53203 
22 4.01304e-07 -1.42881e-06 53.9138 -0.85181 -0.851824 -8.91763 1.86502e-06 -2.03218e-05 -7.09142e-05 -3.48169 
23 8.71386e-07 -1.98378e-06 56.3885 1.68561 1.68562 1.87697 -1.22078e-05 2.0671e-05 -8.60714e-07 -2.55581 
24 -1.23087e-07 -1.12453e-06 -53.8876 -2.60715 -2.60715 -6.54982 -2.08394e-05 2.14132e-05 -3.56707e-05 -3.40183 
25 1.02659e-07 -1.55837e-06 -51.3239 -2.07893 -2.07965 -5.58525 -9.36421e-05 -0.00189556 0.000777604 -3.52874 
26 0.000528698 -0.000213582 -48.7464 -2.71566 -2.70806 -6.17058 0.000455258 0.0329752 -0.0133079 -3.52631 
27 0.0011793 -0.00048868 -46.165 -3.04438 -3.03302 -6.37233 0.000771162 0.0285841 -0.0123951 -3.52671 
28 0.00155497 -0.000694404 -43.5827 -3.32413 -3.31133 -6.63012 0.00122847 0.0264793 -0.0109769 -3.52629 
29 0.00175069 -0.00084527 -41.0014 -3.57667 -3.56379 -6.91509 0.00135106 0.0259666 -0.00932971 -3.5257 
30 0.00183167 -0.000951321 -38.4217 -3.82435 -3.81114 -7.22113 0.00170634 0.0260272 -0.0077426 -3.52487 
31 0.0018407 -0.0010135 -35.8442 -4.06865 -4.05492 -7.54478 0.00170092 0.0261613 -0.00652403 -3.52381 
32 0.00179712 -0.00103399 -33.2695 -4.29975 -4.28612 -7.87303 0.00182154 0.0261579 -0.00559137 -3.52259 
33 0.0017069 -0.00101263 -30.6978 -4.5066 -4.49183 -8.19064 0.00145563 0.0256741 -0.00521429 -3.52129 
34 0.00157211 -0.000951758 -28.1294 -4.67896 -4.6641 -8.47972 0.00118636 0.0251498 -0.00542581 -3.52006 
35 0.00139225 -0.000862006 -25.564 -4.81655 -4.80108 -8.72915 0.00043731 0.0247662 -0.00611375 -3.51897 
36 0.00117074 -0.000756243 -23.0014 -4.92203 -4.90687 -8.93883 -0.000618404 0.0246741 -0.00734512 -3.51804 
37 0.000911661 -0.00064526 -20.4412 -5.00096 -4.98628 -9.1048 -0.00171834 0.0253593 -0.00883415 -3.51729 
38 0.000626865 -0.000538295 -17.8829 -5.05882 -5.04524 -9.23482 -0.00257595 0.0269334 -0.0104573 -3.51669 
39 0.000327664 -0.000439691 -15.3261 -5.10228 -5.08988 -9.337 -0.00364284 0.0287241 -0.0117668 -3.51622 
40 2.43773e-05 -0.000352461 -12.7706 -5.13235 -5.12151 -9.41114 -0.00450198 0.0305613 -0.0127299 -3.51587 
41 -0.000272514 -0.000279628 -10.2159 -5.15299 -5.1438 -9.46739 -0.00512712 0.0325743 -0.0134728 -3.51561 
42 -0.000558144 -0.000220377 -7.66199 -5.16674 -5.15904 -9.50555 -0.00552429 0.0342638 -0.0138817 -3.51543 
43 -0.000829118 -0.000172387 -5.10843 -5.17506 -5.16892 -9.53046 -0.00586122 0.0357007 -0.0139538 -3.5153 
44 -0.00108428 -0.000130949 -2.55523 -5.17873 -5.17404 -9.54459 -0.00604743 0.0366378 -0.0138302 -3.51523 
45 0.0947401 2.15993 1.27432 -4.04054 -5.13978 -3.84172 -0.0558077 -0.432364 0.0152316 -3.5291 
46 0.0683908 2.16095 3.82742 -4.03806 -5.13688 -3.83248 -0.0418011 -0.432648 0.00548711 -3.52911 
47 0.042059 2.1616 6.38074 -4.03873 -5.13566 -3.81524 -0.0279831 -0.432926 -0.00434113 -3.52912 
48 0.0157403 2.16194 8.93442 -4.04125 -5.12759 -3.78886 -0.0140386 -0.43342 -0.0147355 -3.52915 
49 -0.010551 2.16191 11.4886 -4.04569 -5.12155 -3.75181 -0.000300167 -0.433629 -0.0260921 -3.52917 
50 -0.0368007 2.16158 14.0435 -4.05257 -5.10708 -3.70225 0.0131193 -0.433982 -0.0385771 -3.52921 
51 -0.062992 2.16089 16.5994 -4.06115 -5.09112 -3.63753 0.0258477 -0.433993 -0.0528608 -3.52926 
52 -0.0890987 2.15988 19.1565 -4.07131 -5.06648 -3.5538 0.0375664 -0.434022 -0.0685181 -3.52932 
53 -0.115119 2.15854 21.7151 -4.08183 -5.03249 -3.44706 0.0477339 -0.433867 -0.0867096 -3.52941 
54 -0.141049 2.15688 24.2757 -4.09024 -4.98526 -3.31188 0.0561808 -0.433581 -0.107101 -3.52951 
55 -0.166882 2.15495 26.8386 -4.0894 -4.91665 -3.14464 0.0622436 -0.432899 -0.129404 -3.52966 
56 -0.192602 2.15278 29.4044 -4.0723 -4.82113 -2.94267 0.0655174 -0.431733 -0.151662 -3.52985 
57 -0.218205 2.15047 31.9733 -4.02533 -4.69017 -2.70782 0.0663732 -0.429667 -0.170342 -3.53012 
58 -0.243664 2.14812 34.5455 -3.93522 -4.51799 -2.4495 0.0653091 -0.427096 -0.181895 -3.53047 
59 -0.268949 2.14575 37.1209 -3.7974 -4.31226 -2.18144 0.064031 -0.423298 -0.186146 -3.53088 
60 -0.294002 2.14331 39.699 -3.61867 -4.08466 -1.91497 0.0636205 -0.417763 -0.188821 -3.53129 
61 -0.318791 2.14068 42.2794 -3.41253 -3.84929 -1.65185 0.0654271 -0.410571 -0.195509 -3.53165 
62 -0.343338 2.13781 44.8618 -3.18554 -3.60027 -1.37968 0.0678984 -0.402559 -0.212901 -3.53194 
63 -0.367783 2.13491 47.4463 -2.9074 -3.289 -1.09496 0.0678874 -0.395773 -0.232906 -3.53224 
64 -0.392512 2.13371 50.032 -2.43045 -2.79729 -0.488504 0.060391 -0.414033 -0.202624 -3.53323 
65 -0.418483 2.1304 52.6263 -1.76563 -2.00549 -0.56132 0.0455354 -0.308946 -0.729903 -3.52456 
66 -0.44812 2.14653 55.1778 6.97655 7.73842 2.43095 0.0330039 -0.597326 1.77024 -3.02528 
67 0.649859 2.05055 -55.162 1.3894 0.842339 -0.678515 -0.188257 -0.0991962 1.20759 -3.26036 
68 0.633027 2.08274 -52.6122 -1.11216 -2.21874 -0.45785 -0.374532 -0.489217 -0.161502 -3.53567 
69 0.607028 2.08678 -50.0319 -2.00118 -2.56556 -0.877234 -0.165736 -0.421236 0.0877502 -3.53401 
70 0.58231 2.0887 -47.4533 -2.65523 -3.08233 -1.22321 -0.130755 -0.387003 0.165982 -3.53288 
71 0.558211 2.09254 -44.8714 -3.07838 -3.45209 -1.3842 -0.111445 -0.384874 0.207891 -3.53223 
72 0.534019 2.09707 -42.2895 -3.37654 -3.7368 -1.61139 -0.102401 -0.390698 0.218715 -3.5318 
73 0.509535 2.10176 -39.7089 -3.61866 -3.99331 -1.86036 -0.100857 -0.39799 0.224248 -3.53138 
74 0.48473 2.10652 -37.1303 -3.81932 -4.23053 -2.1226 -0.104544 -0.404703 0.227839 -3.53095 
75 0.459628 2.11134 -34.5542 -3.97511 -4.44568 -2.39085 -0.112494 -0.410302 0.226896 -3.53052 
76 0.434295 2.11624 -31.9812 -4.08198 -4.62661 -2.65325 -0.122416 -0.415174 0.218854 -3.53016 
77 0.408757 2.12117 -29.4114 -4.1436 -4.77152 -2.89561 -0.132191 -0.419968 0.203093 -3.52986 
78 0.383054 2.12604 -26.8448 -4.16998 -4.87814 -3.10869 -0.139542 -0.423944 0.182229 -3.52964 
79 0.357202 2.13075 -24.2812 -4.17248 -4.9569 -3.28836 -0.143783 -0.427051 0.159505 -3.52948 
80 0.331227 2.1352 -21.7202 -4.16125 -5.01308 -3.43436 -0.144523 -0.429078 0.137609 -3.52936 
81 0.305149 2.13935 -19.1612 -4.14325 -5.05192 -3.54992 -0.141906 -0.430387 0.117067 -3.52928 
82 0.278983 2.14316 -16.6039 -4.12417 -5.08065 -3.63948 -0.136346 -0.431333 0.0989259 -3.52922 
83 0.252745 2.14661 -14.0479 -4.10543 -5.10101 -3.70839 -0.128432 -0.431949 0.0828271 -3.52917 
84 0.226456 2.14973 -11.493 -4.08866 -5.11438 -3.75943 -0.118563 -0.432084 0.0687588 -3.52914 
85 0.200132 2.15245 -8.93877 -4.07416 -5.12635 -3.7958 -0.107721 -0.432222 0.0561582 -3.52911 
86 0.173792 2.15486 -6.38511 -4.06172 -5.13144 -3.82114 -0.0954871 -0.432175 0.0450541 -3.52911 
87 0.147449 2.15689 -3.83181 -4.05214 -5.13719 -3.83647 -0.0829719 -0.432103 0.0347431 -3.52909 
88 0.121096 2.15859 -1.27872 -4.04502 -5.13832 -3.84271 -0.0695399 -0.432208 0.0248713 -3.5291 
89 0.217516 4.32664 -0.00216769 -3.37779 -4.7449 -3.30481 -0.0768921 -0.913523 0.0474906 -3.53368 
90 0.28783 6.49898 1.27421 -2.7687 -4.34799 -2.86848 -0.0775377 -1.34251 0.0572725 -3.53384 
91 2.20746 2.73741 -0.0015418 -3.37777 -3.54613 -3.05926 -0.420208 -0.311666 0.259726 -3.52984 
92 2.17397 2.76393 2.55149 -3.36553 -3.55661 -3.0547 -0.417146 -0.317686 0.251999 -3.52984 
93 2.29384 4.92862 1.27424 -2.71613 -3.57514 -2.73434 -0.345619 -0.788473 0.0251205 -3.53337 
94 4.2906 3.33719 1.276 -3.39257 -2.90097 -2.73316 -0.499219 -0.19942 0.76601 -3.53337 
95 0.164937 4.32897 2.55072 -3.37496 -4.7457 -3.30039 -0.059799 -0.913978 0.0291881 -3.53369 
96 0.112375 4.3306 5.10374 -3.37653 -4.74639 -3.28957 -0.0422024 -0.914533 0.0102898 -3.53369 
97 0.208963 6.50191 3.82688 -2.76858 -4.35037 -2.86257 -0.0579872 -1.3436 0.0307653 -3.53384 
98 2.23381 4.95593 3.82723 -2.70841 -3.58482 -2.7274 -0.333465 -0.790924 0.00901564 -3.53337 
99 0.130106 6.5038 6.37973 -2.77363 -4.35375 -2.85222 -0.0385231 -1.34502 0.00358034 -3.53383 
100 4.24966 3.38882 3.82898 -3.38011 -2.91554 -2.72543 -0.502867 -0.214499 0.759523 -3.53337 
101 2.14013 2.78996 5.10466 -3.35547 -3.56828 -3.04309 -0.412462 -0.323758 0.244138 -3.52984 
102 2.10595 2.81551 7.65811 -3.34782 -3.58143 -3.02463 -0.406003 -0.330348 0.236062 -3.52984 
103 2.17344 4.98237 6.38041 -2.70379 -3.59563 -2.7147 -0.319943 -0.793852 -0.00797732 -3.53337 
104 4.20804 3.43985 6.38216 -3.36952 -2.93244 -2.71152 -0.50454 -0.229708 0.752985 -3.53337 
105 0.0598238 4.33152 7.65703 -3.38247 -4.74754 -3.27293 -0.0247718 -0.915388 -0.00889875 -3.53369 
106 0.00729745 4.33177 10.2107 -3.3929 -4.74805 -3.24852 -0.00715906 -0.916395 -0.0298626 -3.53368 
107 0.0512739 6.50461 8.93287 -2.78329 -4.35986 -2.83639 -0.0189665 -1.34651 -0.0244347 -3.53382 
108 2.11273 5.00796 8.93391 -2.70329 -3.60844 -2.69552 -0.304753 -0.797341 -0.025812 -3.53337 
109 -0.0275028 6.50436 11.4865 -2.79851 -4.36642 -2.8146 0.00052304 -1.34854 -0.0544984 -3.53379 
110 4.16573 3.49027 8.93566 -3.36147 -2.95281 -2.691 -0.504056 -0.24575 0.746094 -3.53337 
111 2.07144 2.84057 10.212 -3.34217 -3.59506 -2.99742 -0.398047 -0.337859 0.226533 -3.52983 
112 2.03663 2.86511 12.7665 -3.33872 -3.60976 -2.96035 -0.387901 -0.345844 0.216424 -3.52982 
113 2.0517 5.03265 11.4879 -2.70633 -3.62214 -2.66764 -0.287725 -0.801562 -0.0455195 -3.53336 
114 4.12274 3.54005 11.4896 -3.35577 -2.97456 -2.66225 -0.501268 -0.262874 0.737667 -3.53337 
115 -0.045167 4.3313 12.765 -3.40739 -4.74765 -3.21459 0.00991995 -0.916969 -0.0517802 -3.53368 
116 -0.0975576 4.33014 15.32 -3.42778 -4.74706 -3.17084 0.0268055 -0.917773 -0.0767029 -3.53367 
117 -0.106184 6.50303 14.0406 -2.81965 -4.37496 -2.78525 0.0198088 -1.35067 -0.0870661 -3.53376 
118 1.99038 5.05643 14.0425 -2.71451 -3.63704 -2.63127 -0.268967 -0.806577 -0.0674371 -3.53335 
119 -0.184742 6.50061 16.5956 -2.84713 -4.38424 -2.74634 0.0385002 -1.35283 -0.122587 -3.53372 
120 4.0791 3.58914 14.0443 -3.35347 -3.00052 -2.6239 -0.495672 -0.281555 0.728017 -3.53336 
121 2.00149 2.88912 15.3217 -3.33798 -3.62543 -2.91196 -0.375553 -0.355191 0.204404 -3.5298 
122 1.96608 2.91257 17.8781 -3.33945 -3.63952 -2.84789 -0.360929 -0.365507 0.190319 -3.52978 
123 1.92879 5.07925 16.5981 -2.72725 -3.65222 -2.58324 -0.248207 -0.812355 -0.0920192 -3.53334 
124 4.03479 3.63751 16.5998 -3.3544 -3.02877 -2.57414 -0.486893 -0.302063 0.716308 -3.53335 
125 -0.149825 4.32828 17.8761 -3.45309 -4.74368 -3.11232 0.0427384 -0.918533 -0.103941 -3.53367 
126 -0.201956 4.32571 20.4334 -3.48401 -4.73799 -3.03828 0.0578625 -0.918857 -0.13486 -3.53366 
127 -0.26312 6.49709 19.1516 -2.88246 -4.39455 -2.69656 0.0564201 -1.35527 -0.162436 -3.53366 
128 1.86696 5.10107 19.1547 -2.74582 -3.66765 -2.52041 -0.225326 -0.8201 -0.120375 -3.53332 
129 -0.341304 6.49248 21.7088 -2.92481 -4.40391 -2.6307 0.0734814 -1.35783 -0.206623 -3.5336 
130 3.98985 3.68511 19.1564 -3.35828 -3.05928 -2.51015 -0.474529 -0.325227 0.70236 -3.53334 
131 1.9304 2.93543 20.4358 -3.34317 -3.65314 -2.7669 -0.343641 -0.377696 0.174213 -3.52976 
132 1.89443 2.9577 22.9951 -3.3479 -3.66241 -2.66469 -0.323693 -0.392072 0.155141 -3.52972 
133 1.8049 5.1219 21.7128 -2.76996 -3.681 -2.44118 -0.200533 -0.829611 -0.152787 -3.5333 
134 3.94426 3.73191 21.7145 -3.36488 -3.09149 -2.42963 -0.458018 -0.351793 0.685404 -3.53331 
135 -0.253939 4.32246 22.9923 -3.51977 -4.72501 -2.94243 0.0715935 -0.91903 -0.16936 -3.53366 
136 -0.305756 4.31856 25.5533 -3.55681 -4.70171 -2.82069 0.0833194 -0.919102 -0.207255 -3.53367 
137 -0.419257 6.4868 24.2677 -2.97343 -4.40881 -2.54486 0.0891862 -1.36002 -0.256203 -3.53354 
138 1.74263 5.14171 24.2726 -2.79771 -3.69045 -2.34171 -0.173417 -0.84154 -0.189926 -3.53326 
139 -0.496959 6.48016 26.8287 -3.02519 -4.40481 -2.43392 0.103578 -1.36132 -0.309669 -3.53348 
140 3.89806 3.77788 24.2743 -3.37307 -3.1221 -2.3295 -0.437611 -0.381738 0.664204 -3.53328 
141 1.85823 2.97938 25.5566 -3.34979 -3.66415 -2.53677 -0.300993 -0.408402 0.133099 -3.52967 
142 1.82184 3.00052 28.1206 -3.34379 -3.65186 -2.3798 -0.27625 -0.426111 0.108433 -3.52961 
143 1.68018 5.16055 26.8346 -2.82695 -3.69143 -2.21717 -0.145055 -0.855685 -0.230948 -3.53322 
144 3.85129 3.82304 26.8362 -3.37863 -3.14858 -2.20484 -0.413484 -0.415219 0.638894 -3.53323 
145 -0.357395 4.3141 28.1167 -3.58976 -4.66092 -2.66814 0.0927103 -0.918042 -0.247268 -3.5337 
146 -0.408834 4.30923 30.6831 -3.60805 -4.59192 -2.48085 0.0991165 -0.915924 -0.286018 -3.53379 
147 -0.574372 6.4727 29.3922 -3.07436 -4.38378 -2.29073 0.115784 -1.36097 -0.364805 -3.53345 
148 1.61762 5.17852 29.3993 -2.85114 -3.67817 -2.06452 -0.116177 -0.871232 -0.273839 -3.53316 
149 -0.651457 6.4647 31.9587 -3.10948 -4.33472 -2.11139 0.124877 -1.35882 -0.416934 -3.53348 
150 3.80408 3.86744 29.4008 -3.37719 -3.16492 -2.05322 -0.386593 -0.450871 0.610228 -3.53317 
151 1.78534 3.02121 30.6876 -3.32 -3.61729 -2.19215 -0.250735 -0.443048 0.0842003 -3.52956 
152 1.7489 3.04162 33.2578 -3.26618 -3.54921 -1.97601 -0.226952 -0.455758 0.0644273 -3.52955 
153 1.55507 5.19584 31.9669 -2.86105 -3.64143 -1.8834 -0.0894345 -0.886217 -0.313977 -3.53311 
154 3.75662 3.91119 31.9683 -3.35771 -3.15997 -1.87327 -0.359137 -0.484388 0.580999 -3.5331 
155 -0.460042 4.30417 33.2528 -3.59635 -4.4855 -2.26159 0.101902 -0.912817 -0.317937 -3.53396 
156 -0.511002 4.29912 35.8259 -3.53668 -4.33118 -2.01771 0.101862 -0.908366 -0.338691 -3.53423 
157 -0.728195 6.45654 34.5287 -3.11273 -4.24077 -1.89571 0.130221 -1.35482 -0.458161 -3.53361 
158 1.49269 5.21288 34.5379 -2.83966 -3.56908 -1.67526 -0.0675506 -0.896993 -0.344239 -3.53308 
159 -0.804533 6.44862 37.1024 -3.0628 -4.08798 -1.65428 0.132109 -1.34734 -0.483634 -3.53388 
160 3.70924 3.95456 34.5392 -3.30604 -3.12062 -1.66602 -0.334666 -0.510656 0.556511 -3.53307 
161 1.71269 3.06197 35.8313 -3.16745 -3.4372 -1.73893 -0.207434 -0.460924 0.0533754 -3.52961 
162 1.67686 3.08238 38.4079 -3.01886 -3.27926 -1.49113 -0.193628 -0.457756 0.0507614 -3.52977 
163 1.43071 5.23004 37.1123 -2.76782 -3.44831 -1.44598 -0.052916 -0.898248 -0.358662 -3.53313 
164 3.66227 3.99786 37.1135 -3.20311 -3.03162 -1.43734 -0.316355 -0.524421 0.541706 -3.53312 
165 -0.561638 4.29415 38.4023 -3.4199 -4.13162 -1.76519 0.10075 -0.900256 -0.349747 -3.53458 
166 -0.611835 4.28909 40.9812 -3.25371 -3.90338 -1.51671 0.100515 -0.888626 -0.360026 -3.53492 
167 -0.880355 6.44101 39.6793 -2.94793 -3.87572 -1.40695 0.130879 -1.33444 -0.49611 -3.53425 
168 1.36936 5.24751 39.6897 -2.63528 -3.27444 -1.20849 -0.0463264 -0.887936 -0.360589 -3.5333 
169 -0.955534 6.43345 42.2586 -2.77658 -3.62378 -1.1723 0.129456 -1.31641 -0.508118 -3.53461 
170 3.61598 4.04121 39.6908 -3.03941 -2.88886 -1.20051 -0.303856 -0.52649 0.535179 -3.53329 
171 1.64143 3.10276 40.9871 -2.82901 -3.08513 -1.24026 -0.183806 -0.451713 0.0486298 -3.53 
172 1.60633 3.12298 43.5684 -2.6069 -2.86181 -0.984989 -0.175526 -0.448985 0.0385206 -3.53028 
173 1.30872 5.26515 42.2695 -2.4487 -3.05661 -0.972765 -0.0452777 -0.872919 -0.364844 -3.53355 
174 3.57033 4.08456 42.2705 -2.82155 -2.69972 -0.966352 -0.295518 -0.526594 0.525923 -3.53354 
175 -0.661567 4.28378 43.5621 -3.04913 -3.65645 -1.27117 0.102403 -0.873813 -0.377992 -3.53523 
176 -0.711004 4.27815 46.1445 -2.8188 -3.38911 -1.00923 0.105366 -0.858203 -0.409658 -3.53549 
177 -1.03012 6.42573 44.8393 -2.55595 -3.33987 -0.956347 0.129223 -1.29502 -0.525319 -3.53495 
178 1.24866 5.28279 44.8508 -2.21407 -2.80021 -0.740326 -0.0474896 -0.861619 -0.382467 -3.53386 
179 -1.10446 6.41817 47.4203 -2.29224 -3.01409 -0.770575 0.131137 -1.27532 -0.537874 -3.53528 
180 3.52514 4.12781 44.8517 -2.55618 -2.473 -0.741406 -0.288781 -0.534028 0.505205 -3.53383 
181 1.57135 3.14301 46.1514 -2.35852 -2.61331 -0.707754 -0.168338 -0.457403 0.0117466 -3.53054 
182 1.53637 3.16328 48.7363 -2.08406 -2.35551 -0.337427 -0.181467 -0.479252 -0.0266665 -3.53016 
183 1.18871 5.30045 47.433 -1.94022 -2.50225 -0.509472 -0.0617265 -0.866932 -0.426901 -3.53411 
184 3.48011 4.17102 47.4337 -2.23679 -2.21812 -0.532933 -0.283671 -0.559369 0.461534 -3.53403 
185 -0.760625 4.2733 48.7284 -2.59794 -3.06963 -0.663862 0.09793 -0.849132 -0.413973 -3.53516 
186 -0.811621 4.26877 51.3169 -1.98825 -2.35094 0.313125 0.0838935 -0.841833 -0.653455 -3.53804 
187 -1.17889 6.41384 50.0002 -2.0567 -2.54019 -0.331535 0.0869918 -1.27959 -0.617198 -3.53572 
188 1.12775 5.31799 50.0156 -1.56648 -2.07603 -0.0155964 -0.109956 -0.945885 -0.594668 -3.53485 
189 -1.25707 6.40546 52.5877 -1.61236 -2.48684 0.643307 0.175772 -1.3162 -0.613124 -3.53281 
190 3.43505 4.21346 50.0156 -1.75551 -1.84979 -0.0324082 -0.308145 -0.668638 0.314163 -3.53491 
191 1.50027 3.18358 51.3264 -1.43146 -1.70109 0.661065 -0.172571 -0.548388 -0.133348 -3.53272 
192 1.46587 3.20964 53.9052 0.0267402 0.954033 -0.795712 0.566316 -0.560966 0.139002 -3.37565 
193 1.06597 5.33731 52.6041 -1.24909 -1.89847 0.441591 -0.236971 -0.801336 -0.410851 -3.52779 
194 3.38747 4.26008 52.6041 -1.41007 -1.71346 0.389928 -0.390691 -0.639463 0.587302 -3.52746 
195 -0.866323 4.2769 53.8949 -0.0508653 -0.206084 -1.1804 0.0793694 -1.26166 1.02745 -3.38132 
196 1.3298 4.1174 -56.3442 5.06941 2.90561 1.60242 -1.25471 -0.273894 0.110261 -2.79034 
197 -1.33605 6.40133 55.1665 4.18011 2.79743 1.28999 0.31993 -1.52319 0.197844 -3.26107 
198 1.00488 5.36129 55.1754 5.64202 6.63184 2.70772 0.369834 -0.636467 -0.0326588 -3.15047 
199 1.98371 6.26223 -55.1334 6.93985 9.11553 2.9291 0.134194 -0.847903 -0.525648 -3.02309 
200 3.34328 4.30996 55.1754 5.53064 7.35761 2.8691 0.118716 -0.27865 0.56261 -3.15115 
201 2.87095 2.09325 -56.362 4.04253 6.00649 1.88097 -3.16453 0.25263 0.341776 -2.79939 
202 2.84551 2.1252 -53.8874 0.164951 0.763249 -3.02657 -0.982125 -0.732827 -0.162375 -3.51266 
203 3.53831 4.21674 -55.1525 6.03165 6.2739 1.75936 0.302436 -1.21952 -0.0444739 -3.1433 
204 5.07312 2.13635 -55.1525 6.04997 7.03886 2.00316 0.446067 -0.528122 0.0805259 -3.14511 
205 1.29262 4.16451 -53.8815 0.861236 -0.348325 -3.67514 -0.4089 -0.573887 0.839006 -3.51412 
206 1.24176 4.17585 -51.3147 -1.28698 -1.9112 -0.37505 -0.214925 -0.881776 0.219421 -3.53905 
207 1.90264 6.26187 -52.5941 -0.918145 -1.45703 -0.573343 -0.184233 -1.16812 0.819901 -3.52792 
208 3.4607 4.22944 -52.6036 -0.749064 -0.92594 0.095429 -0.677579 -0.496213 0.191258 -3.53019 
209 1.82403 6.27282 -50.0101 -1.64199 -2.33034 -0.265082 -0.197416 -1.27415 0.437848 -3.53676 
210 5.01221 2.17771 -52.6036 -1.34201 -0.348622 0.0546164 -0.502618 0.0190552 0.991445 -3.52953 
211 2.80522 2.14769 -51.32 -1.10373 -0.947102 -0.116964 -0.278168 -0.334132 0.261679 -3.53415 
212 2.77265 2.17472 -48.7406 -1.97768 -1.84235 -0.557229 -0.293352 -0.200249 0.35128 -3.53086 
213 3.40036 4.25787 -50.02 -1.43604 -1.65879 -0.14768 -0.409976 -0.69922 0.292634 -3.53494 
214 4.971 2.23184 -50.02 -1.84984 -1.27697 -0.120934 -0.297001 0.0307732 0.840915 -3.53497 
215 1.19009 4.18061 -48.7355 -2.19066 -2.7621 -0.794743 -0.182484 -0.834443 0.294594 -3.53641 
216 1.14093 4.18701 -46.1541 -2.65454 -3.19968 -0.987364 -0.169163 -0.82286 0.409874 -3.53603 
217 1.74935 6.27901 -47.4306 -2.11351 -2.83817 -0.683385 -0.21665 -1.23191 0.554454 -3.53588 
218 3.34572 4.28777 -47.4413 -1.90668 -2.21003 -0.574185 -0.302234 -0.623978 0.346928 -3.53414 
219 1.67594 6.29108 -44.8495 -2.48705 -3.19895 -0.873613 -0.205206 -1.23724 0.610712 -3.53532 
220 4.93551 2.28468 -47.4405 -2.32899 -1.79055 -0.551395 -0.213001 0.122787 0.872482 -3.53419 
221 2.74316 2.20229 -46.1595 -2.37918 -2.27198 -0.751627 -0.234255 -0.144706 0.402325 -3.53073 
222 2.7153 2.23114 -43.5777 -2.69298 -2.59515 -0.964242 -0.219235 -0.137183 0.420826 -3.53036 
223 3.29275 4.3202 -44.8606 -2.24844 -2.57657 -0.728006 -0.263127 -0.61399 0.380495 -3.53391 
224 4.90318 2.33796 -44.8597 -2.67031 -2.14678 -0.731126 -0.180003 0.156297 0.90265 -3.53391 
225 1.09224 4.19577 -43.5722 -2.99428 -3.52072 -1.21533 -0.157371 -0.832968 0.433233 -3.53551 
226 1.0433 4.20517 -40.9911 -3.25427 -3.79604 -1.45602 -0.155149 -0.847926 0.438701 -3.53507 
227 1.60254 6.30475 -42.2685 -2.77094 -3.5064 -1.10093 -0.205303 -1.25683 0.624719 -3.53482 
228 3.24054 4.35404 -42.2797 -2.52355 -2.8741 -0.929018 -0.246895 -0.619001 0.39664 -3.53359 
229 1.52855 6.31905 -39.6886 -2.98102 -3.77448 -1.34403 -0.212483 -1.27718 0.62749 -3.53437 
230 4.8722 2.3921 -42.2787 -2.95547 -2.43004 -0.937713 -0.169918 0.165368 0.926777 -3.53358 
231 2.68779 2.26069 -40.9966 -2.94894 -2.857 -1.19482 -0.216961 -0.137545 0.433874 -3.53004 
232 2.66023 2.29081 -38.417 -3.16148 -3.0729 -1.43755 -0.222008 -0.138287 0.44489 -3.52979 
233 3.18842 4.3889 -39.6997 -2.74106 -3.11489 -1.15336 -0.241827 -0.62588 0.406103 -3.53331 
234 4.84166 2.4472 -39.6987 -3.19223 -2.6481 -1.16288 -0.170945 0.168276 0.947959 -3.53331 
235 0.99382 4.21479 -38.4117 -3.45302 -4.04071 -1.70664 -0.159868 -0.861599 0.439577 -3.53466 
236 0.943796 4.22461 -35.8346 -3.59238 -4.25106 -1.96092 -0.169463 -0.873209 0.433845 -3.53429 
237 1.4538 6.33383 -37.111 -3.12201 -3.99846 -1.59618 -0.223389 -1.29428 0.621747 -3.53396 
238 3.13616 4.42469 -37.1217 -2.90155 -3.29945 -1.38798 -0.245803 -0.633693 0.407716 -3.53312 
239 1.3784 6.34909 -34.5365 -3.19426 -4.16737 -1.84248 -0.233827 -1.30776 0.602684 -3.53365 
240 4.81131 2.50324 -37.1207 -3.37925 -2.80535 -1.39602 -0.181901 0.166842 0.961749 -3.53312 
241 2.63258 2.32146 -35.8397 -3.32969 -3.2425 -1.6835 -0.233969 -0.141516 0.45022 -3.52961 
242 2.60482 2.35256 -33.2653 -3.45039 -3.36366 -1.92339 -0.252752 -0.150164 0.446427 -3.52952 
243 3.08372 4.46128 -34.5466 -3.0031 -3.42598 -1.6181 -0.257433 -0.64591 0.395838 -3.53304 
244 4.78109 2.56012 -34.5454 -3.50993 -2.90254 -1.62556 -0.202292 0.155603 0.962317 -3.53304 
245 0.89334 4.23463 -33.2606 -3.67157 -4.41834 -2.20909 -0.180427 -0.882197 0.418145 -3.53399 
246 0.842522 4.24478 -30.6901 -3.69878 -4.54018 -2.4376 -0.189939 -0.88977 0.390967 -3.53379 
247 1.30244 6.36473 -31.9655 -3.20752 -4.27984 -2.06691 -0.241463 -1.31837 0.567728 -3.53347 
248 3.03101 4.49839 -31.9747 -3.05122 -3.50216 -1.83198 -0.276084 -0.663754 0.369912 -3.53304 
249 1.226 6.3804 -29.3981 -3.18051 -4.34507 -2.2592 -0.244499 -1.32658 0.520712 -3.53341 
250 4.75086 2.61755 -31.9735 -3.58885 -2.95029 -1.84022 -0.230993 0.132034 0.950472 -3.53304 
251 2.57692 2.38396 -30.6942 -3.52388 -3.44129 -2.1467 -0.276838 -0.165313 0.433242 -3.52951 
252 2.54871 2.41544 -28.1263 -3.55913 -3.48438 -2.34461 -0.302956 -0.184554 0.413492 -3.52955 
253 2.97787 4.53565 -29.4062 -3.05751 -3.54182 -2.02209 -0.298265 -0.684619 0.334158 -3.53309 
254 4.72036 2.67524 -29.4049 -3.62585 -2.96299 -2.0308 -0.26469 0.0987575 0.930574 -3.53308 
255 0.791387 4.25486 -28.1229 -3.68806 -4.62197 -2.63512 -0.19577 -0.896215 0.355533 -3.53367 
256 0.739973 4.26463 -25.5587 -3.65542 -4.674 -2.79958 -0.197738 -0.901211 0.316132 -3.53362 
257 1.14913 6.39571 -26.8339 -3.13084 -4.37742 -2.41479 -0.243116 -1.33232 0.467101 -3.53341 
258 2.92414 4.57265 -26.8409 -3.03689 -3.55891 -2.18456 -0.320751 -0.705586 0.294149 -3.53315 
259 1.07188 6.41034 -24.2724 -3.07186 -4.38893 -2.53731 -0.237749 -1.33568 0.412726 -3.53346 
260 4.68928 2.73289 -26.8394 -3.63313 -2.95563 -2.19377 -0.29966 0.0607968 0.906857 -3.53313 
261 2.52008 2.44678 -25.5615 -3.568 -3.50604 -2.51338 -0.328793 -0.205186 0.391013 -3.52959 
262 2.49097 2.47782 -22.9994 -3.55894 -3.51388 -2.65123 -0.352066 -0.224081 0.369376 -3.52965 
263 2.86975 4.60911 -24.2782 -3.00162 -3.56307 -2.31879 -0.340538 -0.723972 0.254908 -3.53321 
264 4.65741 2.79029 -24.2767 -3.62171 -2.93871 -2.32808 -0.333184 0.0231833 0.883262 -3.53319 
265 0.688331 4.27393 -22.9972 -3.61202 -4.70476 -2.93176 -0.195682 -0.904442 0.276932 -3.5336 
266 0.636487 4.28262 -20.4379 -3.56688 -4.72245 -3.0362 -0.189759 -0.906899 0.240393 -3.53361 
267 0.994315 6.42408 -21.7131 -3.01277 -4.38872 -2.63124 -0.229076 -1.33748 0.36099 -3.53353 
268 2.8147 4.64486 -21.7179 -2.96014 -3.56106 -2.42729 -0.356747 -0.739128 0.218735 -3.53325 
269 0.916471 6.43678 -19.1556 -2.95825 -4.38253 -2.70202 -0.217549 -1.33842 0.31363 -3.5336 
270 4.62466 2.8473 -21.7163 -3.59989 -2.91901 -2.43528 -0.36381 -0.0123195 0.861616 -3.53323 
271 2.46135 2.50848 -20.4395 -3.54008 -3.51571 -2.76223 -0.371712 -0.240558 0.349634 -3.5297 
272 2.43119 2.5387 -17.8815 -3.51747 -3.5154 -2.84963 -0.387639 -0.254801 0.332248 -3.52973 
273 2.75898 4.67979 -19.1595 -2.91779 -3.55695 -2.51313 -0.368501 -0.750931 0.18638 -3.53329 
274 4.59098 2.90384 -19.1578 -3.57317 -2.90179 -2.5211 -0.390824 -0.0440687 0.843073 -3.53326 
275 0.584469 4.29062 -17.8804 -3.52458 -4.7324 -3.11662 -0.180951 -0.908762 0.207129 -3.53362 
276 0.532304 4.29792 -15.3243 -3.48735 -4.73734 -3.17728 -0.1699 -0.909935 0.177432 -3.53363 
277 0.838386 6.44839 -16.5996 -2.91139 -4.37473 -2.75605 -0.203841 -1.33909 0.2713 -3.53366 
278 2.70263 4.71387 -16.6027 -2.87814 -3.55355 -2.58062 -0.375936 -0.760159 0.158396 -3.53331 
279 0.760078 6.4589 -14.0446 -2.87159 -4.36635 -2.7954 -0.188242 -1.33951 0.233209 -3.53371 
280 4.55636 2.95989 -16.601 -3.54441 -2.88755 -2.58776 -0.414077 -0.0717968 0.827278 -3.53329 
281 2.40054 2.56848 -15.325 -3.4927 -3.51567 -2.91685 -0.400176 -0.266981 0.317582 -3.52976 
282 2.36939 2.59779 -12.7696 -3.46925 -3.51737 -2.96832 -0.409351 -0.277008 0.305023 -3.52978 
283 2.64567 4.74709 -14.047 -2.84194 -3.55115 -2.6325 -0.379439 -0.767826 0.133524 -3.53333 
284 4.52082 3.01543 -14.0453 -3.5164 -2.8783 -2.6375 -0.43382 -0.0963124 0.814286 -3.53331 
285 0.479995 4.30449 -12.7692 -3.45613 -4.74089 -3.22296 -0.156701 -0.910763 0.151062 -3.53364 
286 0.4276 4.31035 -10.215 -3.43065 -4.74228 -3.25626 -0.142363 -0.911719 0.126801 -3.53366 
287 0.681604 6.46828 -11.4905 -2.8397 -4.36001 -2.82419 -0.171449 -1.33976 0.198725 -3.53376 
288 2.58816 4.77945 -11.4923 -2.81035 -3.55116 -2.6715 -0.379518 -0.773239 0.111852 -3.53334 
289 0.602992 6.47657 -8.93694 -2.81455 -4.35452 -2.8448 -0.153619 -1.34011 0.167015 -3.53379 
290 4.48441 3.07043 -11.4906 -3.49038 -2.87329 -2.67503 -0.450673 -0.117379 0.803283 -3.53333 
291 2.33779 2.62664 -10.2151 -3.44684 -3.51999 -3.00544 -0.415752 -0.285643 0.293781 -3.5298 
292 2.30578 2.65503 -7.66119 -3.42666 -3.52442 -3.0313 -0.419594 -0.293037 0.284105 -3.52982 
293 2.53015 4.81097 -8.93833 -2.78389 -3.55286 -2.69937 -0.376785 -0.777607 0.092176 -3.53335 
294 4.44716 3.1249 -8.93659 -3.46604 -2.87232 -2.70198 -0.46459 -0.136394 0.793822 -3.53334 
295 0.37513 4.31547 -7.6613 -3.41029 -4.74351 -3.27988 -0.126768 -0.912039 0.105578 -3.53366 
296 0.322622 4.3199 -5.10805 -3.39475 -4.74408 -3.29465 -0.110556 -0.912375 0.0850285 -3.53367 
297 0.524284 6.48377 -6.38385 -2.79554 -4.35052 -2.85852 -0.135146 -1.34056 0.138067 -3.53381 
298 2.47169 4.84164 -6.38482 -2.76134 -3.55618 -2.71806 -0.371799 -0.780687 0.0743027 -3.53336 
299 0.445508 6.4899 -3.83103 -2.78163 -4.34782 -2.86646 -0.116381 -1.34096 0.110304 -3.53383 
300 4.40913 3.17881 -6.38308 -3.44404 -2.87513 -2.71965 -0.476214 -0.153358 0.785808 -3.53335 
301 2.27338 2.68296 -5.10774 -3.40836 -3.53014 -3.04817 -0.421645 -0.299597 0.275295 -3.52983 
302 2.2406 2.71042 -2.55457 -3.39195 -3.53717 -3.05717 -0.421811 -0.305501 0.26767 -3.52984 
303 2.4128 4.87147 -3.83165 -2.7426 -3.56085 -2.72963 -0.364816 -0.783357 0.0576666 -3.53336 
304 4.37034 3.23216 -3.8299 -3.42473 -2.88058 -2.7301 -0.485662 -0.169346 0.778695 -3.53336 
305 0.270085 4.32362 -2.55504 -3.38398 -4.74431 -3.30268 -0.0938349 -0.912853 0.066396 -3.53368 
306 0.366685 6.49497 -1.27839 -2.77302 -4.34748 -2.87005 -0.0971861 -1.34164 0.0835385 -3.53384 
307 2.35352 4.90047 -1.27867 -2.72783 -3.56731 -2.73527 -0.3562 -0.786005 0.0412339 -3.53337 
308 4.33083 3.28496 -1.27692 -3.40775 -2.88944 -2.73497 -0.493443 -0.184465 0.772272 -3.53336 
309 2.43877 7.09257 -0.00211504 -2.20815 -3.36485 -2.40449 -0.31615 -1.19275 -0.175553 -3.53292 
310 0.437112 8.66985 -0.00199654 -2.2443 -4.02007 -2.50244 -0.09703 -1.73016 0.0905287 -3.5336 