ITEM: TIMESTEP
0
ITEM: NUMBER OF ATOMS
37664
ITEM: BOX BOUNDS ff ff ff
-100 100
-100 100
-156.15 156.15
ITEM: ATOMS id x y z v_peratom_sxx v_peratom_syy v_peratom_szz v_peratom_sxy v_peratom_sxz v_peratom_syz c_atomPE 
1 -0.00927045 -0.000674825 -0.0181216 -5.19978 -5.1758 -9.53157 -0.0419753 0.259792 -0.0947004 -3.51533 
2 -0.0108588 -0.000479099 2.53556 -5.18368 -5.16948 -9.5125 -0.0422316 0.259926 -0.0922313 -3.51541 
3 -0.0123669 -0.00028999 5.08951 -5.16325 -5.15881 -9.48376 -0.0413845 0.256761 -0.088352 -3.51554 
4 -0.0137833 -9.47876e-05 7.64386 -5.13945 -5.14452 -9.44441 -0.040128 0.251431 -0.0840063 -3.51571 
5 -0.0151038 0.000108792 10.1988 -5.11093 -5.12657 -9.39722 -0.0381015 0.244166 -0.0787391 -3.51593 
6 -0.0162971 0.000372212 12.7543 -5.07494 -5.09743 -9.33246 -0.0372424 0.235443 -0.0728482 -3.51623 
7 -0.0173389 0.000692566 15.3108 -5.03447 -5.06658 -9.25203 -0.0342081 0.226272 -0.0654466 -3.51658 
8 -0.0181599 0.00108031 17.8685 -4.98124 -5.02372 -9.15386 -0.0324782 0.218386 -0.0563578 -3.51703 
9 -0.0187495 0.00155219 20.4275 -4.92171 -4.96968 -9.03327 -0.0309575 0.211253 -0.0470844 -3.51756 
10 -0.0190774 0.00208399 22.9882 -4.84143 -4.89846 -8.87876 -0.028612 0.20364 -0.0390953 -3.51825 
11 -0.0191336 0.002633 25.5511 -4.7392 -4.80367 -8.68414 -0.0272426 0.197028 -0.0316112 -3.5191 
12 -0.0189028 0.00317279 28.1167 -4.61056 -4.68061 -8.44849 -0.0251217 0.190859 -0.0247412 -3.52011 
13 -0.0183889 0.00365235 30.6852 -4.44756 -4.52415 -8.17451 -0.0255118 0.184933 -0.0220428 -3.52128 
14 -0.0175734 0.00399419 33.2569 -4.24822 -4.32859 -7.86747 -0.0236296 0.17928 -0.0218217 -3.52255 
15 -0.0164264 0.00415782 35.8317 -4.02433 -4.10605 -7.54586 -0.0226489 0.175016 -0.0242415 -3.52377 
16 -0.0149278 0.00413261 38.4092 -3.78618 -3.86852 -7.22148 -0.0223849 0.171991 -0.0292175 -3.52485 
17 -0.0129943 0.00386513 40.9891 -3.54975 -3.6303 -6.90599 -0.0197593 0.171345 -0.0351887 -3.52571 
18 -0.010502 0.00329414 43.5713 -3.31141 -3.38813 -6.58651 -0.0179524 0.174029 -0.0428124 -3.52643 
19 -0.00727006 0.00237709 46.1558 -3.05234 -3.1201 -6.22768 -0.0159037 0.182385 -0.051705 -3.52715 
20 -0.00307165 0.000997868 48.743 -2.68634 -2.7242 -5.79853 -0.00766519 0.193629 -0.0627049 -3.52802 
21 5.95933e-07 -4.11185e-08 51.3317 -1.92176 -1.91886 -4.90077 0.000442258 -0.0101922 0.00333312 -3.53201 
22 4.01304e-07 -1.42881e-06 53.9138 -0.853125 -0.853186 -8.91774 -9.31695e-06 -0.00010749 -6.72401e-05 -3.48167 
23 8.71386e-07 -1.98378e-06 56.3885 1.68517 1.6852 1.87528 -7.97368e-05 9.20393e-05 9.85207e-06 -2.55581 
24 -1.23087e-07 -1.12453e-06 -53.8876 -2.60461 -2.60471 -6.54901 -2.91369e-05 3.23174e-05 -7.67664e-05 -3.40184 
25 1.02659e-07 -1.55837e-06 -51.3239 -2.08153 -2.08656 -5.63539 -0.000657048 -0.0135727 0.00553715 -3.52881 
26 0.00369696 -0.00148921 -48.7479 -2.87024 -2.81664 -6.35084 0.00372109 0.231458 -0.0933462 -3.52565 
27 0.0082517 -0.00341634 -46.1683 -3.21888 -3.13873 -6.57003 0.00586822 0.200701 -0.0869156 -3.52607 
28 0.0108826 -0.00485709 -43.5878 -3.49664 -3.40633 -6.8235 0.00903661 0.185917 -0.0769874 -3.52565 
29 0.0122538 -0.00591308 -41.0083 -3.74033 -3.64949 -7.09865 0.00984263 0.182268 -0.065491 -3.52508 
30 0.0128213 -0.00665513 -38.4303 -3.97992 -3.88674 -7.3933 0.0122847 0.182666 -0.0544339 -3.52429 
31 0.0128847 -0.00709014 -35.8543 -4.21715 -4.12039 -7.69858 0.0122098 0.183592 -0.0459425 -3.52328 
32 0.0125796 -0.00723345 -33.2808 -4.43893 -4.34283 -8.01022 0.0130079 0.183566 -0.0394355 -3.52211 
33 0.0119479 -0.00708381 -30.7102 -4.64294 -4.53889 -8.31808 0.0104169 0.180179 -0.0367876 -3.52086 
34 0.0110042 -0.00665764 -28.1428 -4.80972 -4.70503 -8.59416 0.00852354 0.176497 -0.0382426 -3.51968 
35 0.00974506 -0.00602924 -25.5781 -4.94543 -4.83641 -8.83554 0.00328977 0.173797 -0.0430139 -3.5186 
36 0.00819443 -0.00528877 -23.0163 -5.04593 -4.93906 -9.03764 -0.00406468 0.17312 -0.0515773 -3.51769 
37 0.00638091 -0.00451168 -20.4567 -5.1173 -5.01369 -9.19234 -0.0116896 0.177886 -0.061943 -3.51698 
38 0.00438747 -0.00376273 -17.8989 -5.16432 -5.06835 -9.31058 -0.0175821 0.188876 -0.0732488 -3.51643 
39 0.00229322 -0.00307234 -15.3426 -5.19733 -5.1095 -9.4009 -0.0249325 0.20137 -0.0823572 -3.516 
40 0.000170431 -0.00246162 -12.7873 -5.21631 -5.13926 -9.46705 -0.0308242 0.2142 -0.0890458 -3.51568 
41 -0.00190765 -0.0019518 -10.2329 -5.22399 -5.15828 -9.50753 -0.0350829 0.22826 -0.09419 -3.51548 
42 -0.00390683 -0.00153716 -7.67888 -5.22546 -5.17011 -9.53007 -0.0377652 0.240054 -0.0970017 -3.51536 
43 -0.00580361 -0.00120161 -5.1252 -5.22132 -5.17672 -9.54181 -0.04005 0.250086 -0.0974652 -3.5153 
44 -0.00758966 -0.000911978 -2.57167 -5.21279 -5.17826 -9.54173 -0.0413126 0.256612 -0.0965643 -3.51529 
45 0.0851392 2.15939 1.25809 -4.08674 -5.1368 -3.8276 -0.0941731 -0.362877 -0.00016219 -3.52912 
46 0.0574605 2.16047 3.8118 -4.07386 -5.13594 -3.81029 -0.0785613 -0.362234 -0.00940477 -3.52914 
47 0.0298809 2.16121 6.36585 -4.06297 -5.13339 -3.78541 -0.0624467 -0.362789 -0.0185279 -3.52916 
48 0.00238969 2.16162 8.92035 -4.05402 -5.1275 -3.7542 -0.046179 -0.364097 -0.0284606 -3.52919 
49 -0.0249846 2.16172 11.4754 -4.04444 -5.1211 -3.70958 -0.0297199 -0.365484 -0.0373809 -3.52923 
50 -0.0522004 2.16155 14.0313 -4.04054 -5.10728 -3.65222 -0.0130282 -0.366945 -0.0478161 -3.52928 
51 -0.0792227 2.1611 16.5883 -4.03304 -5.09123 -3.58463 0.00220059 -0.36883 -0.0602081 -3.52934 
52 -0.105974 2.16038 19.1464 -4.03011 -5.06664 -3.49835 0.0172819 -0.36996 -0.0728797 -3.52942 
53 -0.132426 2.15941 21.7061 -4.02595 -5.03532 -3.38926 0.0297263 -0.370999 -0.087263 -3.52951 
54 -0.15858 2.15816 24.2677 -4.02246 -4.98847 -3.25281 0.0406379 -0.37222 -0.105329 -3.52962 
55 -0.184392 2.15663 26.8317 -4.00661 -4.92175 -3.08421 0.0487894 -0.372285 -0.126508 -3.52979 
56 -0.209832 2.15488 29.3985 -3.981 -4.82495 -2.8844 0.0536413 -0.371344 -0.148003 -3.52999 
57 -0.234879 2.15291 31.9683 -3.9249 -4.69698 -2.65243 0.0568181 -0.369242 -0.168131 -3.53025 
58 -0.259479 2.15079 34.5414 -3.82769 -4.52418 -2.39783 0.0581595 -0.365882 -0.182114 -3.53061 
59 -0.283566 2.1485 37.1175 -3.68962 -4.31865 -2.13297 0.0589769 -0.360486 -0.188395 -3.53101 
60 -0.307021 2.14598 39.6963 -3.51081 -4.08852 -1.86684 0.0608657 -0.352259 -0.1958 -3.53142 
61 -0.329732 2.14309 42.2773 -3.3095 -3.85163 -1.60574 0.0657185 -0.341172 -0.208892 -3.53176 
62 -0.351582 2.1397 44.8603 -3.09733 -3.59536 -1.33293 0.0695787 -0.326055 -0.233185 -3.53203 
63 -0.372407 2.13602 47.4454 -2.84423 -3.27793 -1.04134 0.0714116 -0.303626 -0.262279 -3.53229 
64 -0.392512 2.13371 50.032 -2.38494 -2.80091 -0.446399 0.030041 -0.365815 -0.227161 -3.5333 
65 -0.418483 2.1304 52.6263 -1.76609 -2.00418 -0.560352 0.0453187 -0.308671 -0.730512 -3.52454 
66 -0.44812 2.14653 55.1778 6.9775 7.73874 2.43035 0.0332361 -0.597234 1.76978 -3.02528 
67 0.649859 2.05055 -55.162 1.39002 0.84313 -0.676384 -0.188189 -0.0991663 1.208 -3.26035 
68 0.633027 2.08274 -52.6122 -1.11411 -2.21976 -0.458499 -0.374803 -0.488836 -0.161736 -3.53572 
69 0.607028 2.08678 -50.0319 -2.02657 -2.63118 -0.96523 -0.126619 -0.383408 0.0683701 -3.53407 
70 0.587188 2.08706 -47.4553 -2.7867 -3.14158 -1.37775 -0.128506 -0.308214 0.140567 -3.53283 
71 0.566424 2.08957 -44.8751 -3.23328 -3.50356 -1.53114 -0.102174 -0.32165 0.188071 -3.53213 
72 0.544215 2.09307 -42.2949 -3.54334 -3.77942 -1.7509 -0.086391 -0.335263 0.205147 -3.53166 
73 0.52084 2.09701 -39.7158 -3.79267 -4.02935 -1.99341 -0.0817947 -0.347745 0.216203 -3.5312 
74 0.496504 2.1013 -37.1387 -4.00018 -4.25719 -2.24758 -0.0831308 -0.359929 0.227377 -3.53075 
75 0.471387 2.10593 -34.564 -4.16043 -4.461 -2.50684 -0.0910028 -0.369939 0.231724 -3.53031 
76 0.445599 2.11092 -31.9923 -4.27278 -4.63478 -2.76052 -0.105314 -0.378749 0.227131 -3.52993 
77 0.419217 2.11617 -29.4237 -4.33487 -4.77211 -2.99179 -0.12197 -0.386032 0.212503 -3.52964 
78 0.392304 2.12156 -26.8582 -4.35708 -4.8702 -3.19399 -0.138612 -0.391893 0.190066 -3.52945 
79 0.364933 2.12688 -24.2955 -4.34943 -4.94589 -3.36673 -0.15322 -0.394938 0.163602 -3.52932 
80 0.337211 2.13196 -21.7354 -4.32482 -4.99855 -3.50433 -0.163196 -0.393379 0.137696 -3.52923 
81 0.309239 2.13669 -19.1771 -4.28911 -5.03715 -3.60783 -0.169407 -0.389869 0.112667 -3.52919 
82 0.281134 2.14101 -16.6204 -4.2533 -5.06611 -3.68629 -0.169592 -0.385947 0.0901647 -3.52916 
83 0.252963 2.1449 -14.0649 -4.21889 -5.08799 -3.74644 -0.165684 -0.381161 0.0706426 -3.52914 
84 0.224791 2.14835 -11.5102 -4.19005 -5.10596 -3.78972 -0.158065 -0.375721 0.0556218 -3.52911 
85 0.196685 2.15135 -8.95612 -4.16062 -5.11796 -3.81516 -0.148834 -0.37164 0.0414862 -3.52911 
86 0.168659 2.15393 -6.4024 -4.13779 -5.12698 -3.83181 -0.136562 -0.367999 0.0294166 -3.5291 
87 0.140743 2.15613 -3.84888 -4.11804 -5.13286 -3.83822 -0.123471 -0.365041 0.0190183 -3.5291 
88 0.112907 2.15795 -1.29543 -4.10122 -5.13594 -3.83664 -0.109159 -0.363629 0.00945422 -3.52911 
89 0.207387 4.326 -0.0183462 -3.42342 -4.75197 -3.29719 -0.119651 -0.862199 0.0525203 -3.53374 
90 0.275753 6.49808 1.25889 -2.80005 -4.36678 -2.86194 -0.118621 -1.30493 0.0695895 -3.53391 
91 2.19757 2.73534 -0.0139927 -3.42352 -3.52615 -3.07967 -0.452055 -0.264096 0.271813 -3.52979 
92 2.16278 2.76197 2.53954 -3.402 -3.54161 -3.06818 -0.447005 -0.269462 0.26493 -3.52979 
93 2.28211 4.9264 1.26179 -2.74805 -3.56527 -2.75264 -0.375032 -0.750087 0.0476228 -3.53336 
94 4.27921 3.33404 1.2667 -3.4352 -2.89209 -2.74812 -0.524556 -0.170803 0.767885 -3.53333 
95 0.153474 4.32831 2.53507 -3.41392 -4.75444 -3.28727 -0.099746 -0.862248 0.0343081 -3.53374 
96 0.0996591 4.32991 5.08871 -3.40771 -4.75726 -3.27094 -0.0791697 -0.862402 0.0156557 -3.53375 
97 0.195633 6.50091 3.81213 -2.79478 -4.37127 -2.85181 -0.0956955 -1.30571 0.0429221 -3.53391 
98 2.22087 4.95373 3.81527 -2.73347 -3.57915 -2.73937 -0.360332 -0.752466 0.0318988 -3.53337 
99 0.115627 6.50267 6.36561 -2.79399 -4.37676 -2.83683 -0.0728126 -1.30663 0.0160935 -3.5339 
100 4.23712 3.38583 3.82017 -3.41384 -2.91096 -2.73565 -0.526304 -0.185129 0.761919 -3.53334 
101 2.12776 2.78811 5.09329 -3.38196 -3.55799 -3.04982 -0.439651 -0.275353 0.25765 -3.5298 
102 2.09249 2.81378 7.6474 -3.36348 -3.57577 -3.02517 -0.430537 -0.282635 0.250117 -3.5298 
103 2.15938 4.98018 6.36904 -2.72188 -3.59441 -2.72013 -0.34396 -0.755319 0.0157024 -3.53337 
104 4.19446 3.43701 6.37388 -3.39422 -2.93268 -2.71702 -0.525731 -0.199735 0.755783 -3.53334 
105 0.045945 4.33083 7.64273 -3.40474 -4.7593 -3.24812 -0.058703 -0.863416 -0.0033564 -3.53375 
106 -0.00766342 4.33108 10.1972 -3.40614 -4.76186 -3.21947 -0.0372357 -0.865006 -0.0233915 -3.53374 
107 0.0357371 6.5034 8.9195 -2.79748 -4.38354 -2.81641 -0.0488078 -1.30815 -0.0119738 -3.53388 
108 2.09764 5.00583 8.92319 -2.71395 -3.61055 -2.69486 -0.325728 -0.759544 -0.00150346 -3.53337 
109 -0.0439996 6.50308 11.4739 -2.80643 -4.39134 -2.79103 -0.0252937 -1.31091 -0.0416788 -3.53385 
110 4.1512 3.48762 8.92797 -3.37641 -2.95726 -2.69168 -0.522937 -0.215838 0.750062 -3.53335 
111 2.05697 2.83899 10.202 -3.34817 -3.59342 -2.99116 -0.419522 -0.290509 0.241279 -3.5298 
112 2.02125 2.86372 12.7572 -3.33282 -3.61235 -2.94858 -0.405585 -0.298606 0.232746 -3.52979 
113 2.03569 5.0306 11.4779 -2.70983 -3.62876 -2.65927 -0.305057 -0.764046 -0.020854 -3.53336 
114 4.10735 3.53762 11.4826 -3.36127 -2.98103 -2.65829 -0.51712 -0.232697 0.742519 -3.53335 
115 -0.0610985 4.33065 12.7524 -3.40855 -4.7613 -3.17903 -0.0158048 -0.866051 -0.0441077 -3.53376 
116 -0.114337 4.3296 15.3084 -3.42009 -4.76084 -3.13161 0.00496089 -0.868198 -0.0678483 -3.53374 
117 -0.123526 6.50174 14.0289 -2.81989 -4.40024 -2.75686 -0.000887738 -1.31395 -0.0731844 -3.53382 
118 1.97358 5.05451 14.0333 -2.70797 -3.64643 -2.61754 -0.28245 -0.769394 -0.0418992 -3.53336 
119 -0.202805 6.49939 16.5849 -2.83637 -4.40939 -2.71196 0.0228251 -1.31581 -0.108183 -3.53379 
120 4.06299 3.58699 14.0379 -3.34847 -3.00994 -2.61583 -0.508259 -0.250743 0.73381 -3.53336 
121 1.98536 2.88799 15.3133 -3.32029 -3.63225 -2.89633 -0.39 -0.308822 0.222874 -3.52977 
122 1.94933 2.91176 17.8705 -3.31106 -3.64763 -2.82692 -0.372614 -0.319258 0.209745 -3.52977 
123 1.91132 5.07756 16.5896 -2.71196 -3.66385 -2.56645 -0.258121 -0.775114 -0.0645119 -3.53334 
124 4.01809 3.63571 16.5941 -3.33953 -3.04075 -2.56379 -0.497313 -0.270496 0.724583 -3.53335 
125 -0.16733 4.32792 17.8655 -3.43203 -4.75813 -3.06946 0.0252679 -0.870085 -0.0933227 -3.53374 
126 -0.219979 4.3256 20.4239 -3.45047 -4.75395 -2.99182 0.0447448 -0.871059 -0.122709 -3.53374 
127 -0.281759 6.49601 19.1419 -2.86368 -4.4191 -2.66246 0.0453261 -1.31853 -0.147497 -3.53372 
128 1.84899 5.09968 19.1471 -2.71914 -3.68131 -2.49649 -0.231552 -0.781969 -0.0910026 -3.53334 
129 -0.360308 6.49161 21.7001 -2.89461 -4.42762 -2.59412 0.0669483 -1.3208 -0.190109 -3.53367 
130 3.97275 3.68371 19.1513 -3.33142 -3.07271 -2.49557 -0.481951 -0.293177 0.712923 -3.53335 
131 1.91324 2.93501 20.429 -3.30143 -3.66449 -2.74169 -0.351559 -0.330582 0.195888 -3.52975 
132 1.87709 2.95773 22.9893 -3.29495 -3.67638 -2.63991 -0.329004 -0.344694 0.179181 -3.52971 
133 1.78665 5.12085 21.706 -2.7347 -3.69616 -2.41489 -0.204018 -0.791745 -0.122157 -3.53332 
134 3.92699 3.73098 21.7101 -3.32657 -3.10698 -2.41215 -0.462542 -0.318221 0.697572 -3.53333 
135 -0.272278 4.32267 22.9839 -3.47347 -4.74009 -2.89598 0.0615897 -0.871626 -0.156122 -3.53374 
136 -0.324203 4.31911 25.5459 -3.49689 -4.71643 -2.77482 0.0770467 -0.872199 -0.193373 -3.53375 
137 -0.438413 6.48622 24.2602 -2.93233 -4.43183 -2.50427 0.0871126 -1.32233 -0.239876 -3.53361 
138 1.7243 5.14106 24.2667 -2.75143 -3.70823 -2.31389 -0.173302 -0.803813 -0.158144 -3.53328 
139 -0.516021 6.47988 26.8222 -2.97244 -4.42578 -2.39335 0.105715 -1.3227 -0.29206 -3.53355 
140 3.88081 3.77745 24.2706 -3.32521 -3.1377 -2.31283 -0.440263 -0.346687 0.677139 -3.5333 
141 1.84091 2.97988 25.5515 -3.28469 -3.67921 -2.50991 -0.303546 -0.361223 0.157474 -3.52967 
142 1.80479 3.00147 28.1164 -3.26757 -3.6671 -2.3522 -0.276099 -0.378401 0.134135 -3.52963 
143 1.66202 5.1603 26.8295 -2.77034 -3.70824 -2.18539 -0.141826 -0.816336 -0.197508 -3.53325 
144 3.83431 3.82311 26.8332 -3.31897 -3.16453 -2.18656 -0.413125 -0.378555 0.653494 -3.53327 
145 -0.375676 4.31502 28.1104 -3.51778 -4.67583 -2.62041 0.0899073 -0.870309 -0.231952 -3.53379 
146 -0.426665 4.31051 30.6778 -3.52411 -4.60592 -2.43421 0.0989976 -0.86693 -0.271526 -3.53389 
147 -0.593048 6.47276 29.3867 -3.01172 -4.4013 -2.24988 0.121634 -1.32121 -0.346381 -3.53354 
148 1.5999 5.17869 29.395 -2.783 -3.69539 -2.03027 -0.109041 -0.830134 -0.239109 -3.53321 
149 -0.669454 6.4651 31.9542 -3.03747 -4.35203 -2.0744 0.134355 -1.31735 -0.399904 -3.53355 
150 3.78762 3.86799 29.3984 -3.30871 -3.18077 -2.03225 -0.384254 -0.412907 0.626784 -3.53322 
151 1.76883 3.0226 30.6841 -3.23408 -3.63353 -2.16768 -0.247573 -0.394477 0.11051 -3.52958 
152 1.7332 3.04337 33.255 -3.17499 -3.56484 -1.95167 -0.222072 -0.40655 0.0899219 -3.52958 
153 1.53807 5.19641 31.9635 -2.78568 -3.6581 -1.84987 -0.0799781 -0.844059 -0.278759 -3.53316 
154 3.74093 3.91218 31.9666 -3.27993 -3.17398 -1.85474 -0.354158 -0.444475 0.598419 -3.53317 
155 -0.477133 4.30573 33.2483 -3.5032 -4.4992 -2.21918 0.104872 -0.862323 -0.304595 -3.53405 
156 -0.526978 4.30088 35.8223 -3.43887 -4.3427 -1.97649 0.107335 -0.856122 -0.327562 -3.53433 
157 -0.745155 6.45723 34.5251 -3.03305 -4.25219 -1.86055 0.142999 -1.31133 -0.441995 -3.5337 
158 1.47673 5.21376 34.5352 -2.75823 -3.58331 -1.64579 -0.0552504 -0.852471 -0.310533 -3.53314 
159 -0.820055 6.44951 37.0996 -2.97876 -4.09639 -1.62128 0.148472 -1.30056 -0.470258 -3.53397 
160 3.6946 3.95591 34.5379 -3.22221 -3.13487 -1.65061 -0.327132 -0.469448 0.572203 -3.53314 
161 1.69809 3.06394 35.8292 -3.07208 -3.45352 -1.71729 -0.199313 -0.410859 0.076741 -3.52964 
162 1.66372 3.08441 38.4063 -2.92304 -3.29166 -1.47191 -0.183367 -0.406462 0.0715868 -3.52982 
163 1.41616 5.23114 37.1101 -2.68095 -3.4585 -1.41529 -0.0375338 -0.85202 -0.327151 -3.53321 
164 3.649 3.99939 37.1126 -3.11671 -3.04136 -1.42241 -0.306612 -0.481867 0.554613 -3.53321 
165 -0.576084 4.29598 38.3994 -3.31997 -4.14003 -1.72581 0.109857 -0.845177 -0.342068 -3.53468 
166 -0.624291 4.29083 40.979 -3.15815 -3.90896 -1.48182 0.110492 -0.829255 -0.357727 -3.53501 
167 -0.894002 6.44199 39.6772 -2.86499 -3.88147 -1.37716 0.148623 -1.28353 -0.487596 -3.53434 
168 1.35661 5.24865 39.6881 -2.5496 -3.28251 -1.17925 -0.0293332 -0.839716 -0.331364 -3.53339 
169 -0.966823 6.43436 42.2571 -2.69977 -3.62593 -1.14559 0.147305 -1.2611 -0.505019 -3.53469 
170 3.60441 4.04275 39.6903 -2.95416 -2.8964 -1.19042 -0.292388 -0.482452 0.546323 -3.53338 
171 1.63015 3.10465 40.9859 -2.738 -3.09623 -1.21959 -0.17192 -0.400127 0.0660293 -3.53005 
172 1.59736 3.12454 43.5676 -2.52523 -2.86553 -0.963153 -0.163326 -0.396032 0.0523024 -3.53034 
173 1.29819 5.26617 42.2682 -2.37048 -3.05914 -0.946019 -0.0282171 -0.822277 -0.338888 -3.53364 
174 3.56082 4.08593 42.2702 -2.74259 -2.70234 -0.957164 -0.283024 -0.4819 0.534949 -3.53364 
175 -0.671509 4.28525 43.5604 -2.9641 -3.65824 -1.2367 0.113904 -0.810276 -0.38138 -3.53531 
176 -0.717728 4.27918 46.1434 -2.75212 -3.38009 -0.971444 0.115311 -0.786783 -0.421948 -3.53557 
177 -1.03852 6.42645 44.8382 -2.49412 -3.33426 -0.930281 0.1452 -1.23649 -0.527741 -3.53503 
178 1.24083 5.28357 44.8499 -2.14686 -2.79727 -0.712396 -0.0306599 -0.808007 -0.360493 -3.53397 
179 -1.10935 6.41856 47.4197 -2.24691 -2.99875 -0.73788 0.142334 -1.21072 -0.550134 -3.53539 
180 3.5181 4.12886 44.8515 -2.49183 -2.47083 -0.734052 -0.277939 -0.487393 0.512137 -3.53394 
181 1.56532 3.14405 46.151 -2.29496 -2.60821 -0.687818 -0.158369 -0.400274 0.0228216 -3.5306 
182 1.53421 3.16364 48.7361 -2.04462 -2.34105 -0.317721 -0.171161 -0.411001 -0.0128331 -3.53026 
183 1.18424 5.30087 47.4325 -1.89605 -2.49092 -0.479335 -0.0525055 -0.809161 -0.406277 -3.53421 
184 3.47616 4.1716 47.4335 -2.19911 -2.20941 -0.526231 -0.278504 -0.507979 0.467606 -3.53414 
185 -0.763013 4.27366 48.7279 -2.55345 -3.0438 -0.619903 0.104961 -0.751211 -0.438064 -3.53533 
186 -0.811621 4.26877 51.3169 -1.98896 -2.34823 0.327043 0.0837567 -0.848906 -0.652589 -3.53801 
187 -1.17889 6.41384 50.0002 -2.02149 -2.54133 -0.304697 0.0569957 -1.22694 -0.629096 -3.53581 
188 1.12775 5.31799 50.0156 -1.55667 -2.06323 0.00252187 -0.100198 -0.909207 -0.581307 -3.53492 
189 -1.25707 6.40546 52.5877 -1.61275 -2.48647 0.643636 0.176533 -1.31744 -0.612033 -3.5328 
190 3.43505 4.21346 50.0156 -1.74989 -1.84259 -0.0282281 -0.302865 -0.637681 0.320748 -3.53495 
191 1.50027 3.18358 51.3264 -1.43157 -1.69966 0.663334 -0.172719 -0.555658 -0.131534 -3.53267 
192 1.46587 3.20964 53.9052 0.0264902 0.953728 -0.796611 0.566173 -0.561298 0.13852 -3.37565 
193 1.06597 5.33731 52.6041 -1.24947 -1.8989 0.440799 -0.237188 -0.801047 -0.410523 -3.52777 
194 3.38747 4.26008 52.6041 -1.4101 -1.71456 0.389108 -0.390305 -0.639013 0.587923 -3.52745 
195 -0.866323 4.2769 53.8949 -0.0504368 -0.206579 -1.17988 0.0795187 -1.26173 1.02744 -3.38132 
196 1.3298 4.1174 -56.3442 5.06954 2.90513 1.60224 -1.255 -0.273851 0.110327 -2.79034 
197 -1.33605 6.40133 55.1665 4.17901 2.79806 1.28964 0.319755 -1.52339 0.198495 -3.26107 
198 1.00488 5.36129 55.1754 5.64335 6.63228 2.70841 0.370434 -0.636307 -0.0318519 -3.15047 
199 1.98371 6.26223 -55.1334 6.94029 9.11547 2.92998 0.134075 -0.84798 -0.525919 -3.02309 
200 3.34328 4.30996 55.1754 5.53083 7.35895 2.86973 0.118491 -0.278186 0.56309 -3.15116 
201 2.87095 2.09325 -56.362 4.04258 6.00655 1.88162 -3.16462 0.252924 0.342047 -2.79939 
202 2.84551 2.1252 -53.8874 0.165578 0.763631 -3.0266 -0.981862 -0.732742 -0.162278 -3.51266 
203 3.53831 4.21674 -55.1525 6.03173 6.27401 1.75887 0.302411 -1.2193 -0.0444502 -3.14331 
204 5.07312 2.13635 -55.1525 6.04998 7.03898 2.0027 0.445985 -0.528053 0.0806867 -3.14511 
205 1.29262 4.16451 -53.8815 0.861072 -0.347333 -3.67592 -0.408442 -0.573947 0.838971 -3.51412 
206 1.24176 4.17585 -51.3147 -1.29104 -1.91561 -0.407755 -0.214976 -0.887909 0.219771 -3.53917 
207 1.90264 6.26187 -52.5941 -0.919424 -1.4569 -0.572624 -0.18423 -1.16824 0.820038 -3.52796 
208 3.4607 4.22944 -52.6036 -0.751211 -0.926856 0.093381 -0.677609 -0.496662 0.190931 -3.53023 
209 1.82403 6.27282 -50.0101 -1.65576 -2.37494 -0.322763 -0.170369 -1.23108 0.434084 -3.53687 
210 5.01221 2.17771 -52.6036 -1.34359 -0.350011 0.0525633 -0.502751 0.0187525 0.991269 -3.52956 
211 2.80522 2.14769 -51.32 -1.10659 -0.951238 -0.15298 -0.279752 -0.341091 0.264609 -3.53423 
212 2.77471 2.17394 -48.7416 -2.06244 -1.88212 -0.661294 -0.300407 -0.107309 0.360712 -3.5308 
213 3.40036 4.25787 -50.02 -1.4733 -1.69066 -0.218136 -0.420105 -0.655155 0.303148 -3.53487 
214 4.971 2.23184 -50.02 -1.89231 -1.29921 -0.181747 -0.301479 0.070395 0.84043 -3.53492 
215 1.19251 4.18014 -48.7364 -2.28256 -2.81763 -0.900958 -0.191942 -0.750984 0.277354 -3.53639 
216 1.14743 4.18542 -46.1565 -2.78004 -3.23488 -1.10681 -0.172415 -0.766241 0.397149 -3.53607 
217 1.75398 6.27853 -47.432 -2.20869 -2.86634 -0.793733 -0.226986 -1.18367 0.547198 -3.53593 
218 3.34974 4.28673 -47.4429 -1.97608 -2.22101 -0.686875 -0.304696 -0.556327 0.359782 -3.53423 
219 1.68347 6.28986 -44.8522 -2.60751 -3.21757 -0.978475 -0.216309 -1.19746 0.605273 -3.53538 
220 4.93905 2.28323 -47.4419 -2.4018 -1.79859 -0.647566 -0.210864 0.183635 0.867818 -3.53424 
221 2.74891 2.20014 -46.1617 -2.50036 -2.28006 -0.86255 -0.230784 -0.0795381 0.405371 -3.53076 
222 2.72342 2.22788 -43.5811 -2.83623 -2.58697 -1.07716 -0.211649 -0.0849811 0.422762 -3.53036 
223 3.29964 4.31822 -44.8633 -2.35696 -2.5721 -0.834109 -0.264868 -0.562675 0.390291 -3.53394 
224 4.90927 2.33533 -44.862 -2.78515 -2.14129 -0.819565 -0.172542 0.201819 0.896854 -3.53389 
225 1.10135 4.19319 -43.5761 -3.13877 -3.54499 -1.33051 -0.156326 -0.785535 0.424715 -3.53552 
226 1.05403 4.20183 -40.9965 -3.41309 -3.81037 -1.56793 -0.15143 -0.807968 0.434579 -3.53505 
227 1.61204 6.30287 -42.2726 -2.90892 -3.51435 -1.20138 -0.217049 -1.22457 0.623556 -3.53486 
228 3.24932 4.3513 -42.2835 -2.65012 -2.85731 -1.03919 -0.247995 -0.578313 0.405012 -3.53359 
229 1.5392 6.31669 -39.6942 -3.12869 -3.77506 -1.43927 -0.226503 -1.25225 0.630694 -3.53439 
230 4.87995 2.38855 -42.2819 -3.09016 -2.41114 -1.02704 -0.160427 0.200312 0.919673 -3.53354 
231 2.6973 2.25657 -41.0012 -3.10543 -2.83508 -1.30724 -0.206687 -0.0929006 0.436819 -3.53004 
232 2.67044 2.28609 -38.4229 -3.32606 -3.04175 -1.54779 -0.210785 -0.0989302 0.449882 -3.52976 
233 3.19829 4.38559 -39.7047 -2.87841 -3.08459 -1.26422 -0.242774 -0.592381 0.414628 -3.53331 
234 4.85033 2.44294 -39.7029 -3.33734 -2.61661 -1.25381 -0.160641 0.197519 0.94185 -3.53326 
235 1.00543 4.21093 -38.4186 -3.62281 -4.04753 -1.81378 -0.155517 -0.827964 0.441398 -3.53461 
236 0.955619 4.22052 -35.8429 -3.76831 -4.25025 -2.06046 -0.168822 -0.845664 0.439995 -3.53422 
237 1.46488 6.33122 -37.1179 -3.27408 -3.99001 -1.68853 -0.242064 -1.27485 0.628864 -3.53397 
238 3.14645 4.42103 -37.1279 -3.04609 -3.25933 -1.49922 -0.248913 -0.605785 0.418593 -3.53309 
239 1.38921 6.34648 -34.5449 -3.34699 -4.15346 -1.93027 -0.259353 -1.29432 0.61361 -3.53364 
240 4.8203 2.49852 -37.1259 -3.53213 -2.76423 -1.4833 -0.172869 0.192488 0.957731 -3.53305 
241 2.64292 2.3164 -35.8469 -3.49715 -3.20232 -1.78602 -0.223572 -0.105444 0.458088 -3.52957 
242 2.61482 2.34743 -33.2736 -3.62109 -3.31209 -2.0193 -0.245377 -0.117279 0.456012 -3.52947 
243 3.09383 4.4575 -34.554 -3.14959 -3.37562 -1.72617 -0.264524 -0.624334 0.40758 -3.533 
244 4.7899 2.55515 -34.5517 -3.66304 -2.85238 -1.7078 -0.195827 0.177039 0.959414 -3.53297 
245 0.904782 4.23059 -33.2703 -3.84807 -4.40954 -2.30309 -0.185467 -0.860375 0.428445 -3.53391 
246 0.85306 4.24102 -30.7011 -3.87292 -4.52624 -2.5267 -0.203003 -0.870137 0.404071 -3.5337 
247 1.31237 6.36231 -31.9753 -3.35152 -4.26093 -2.14861 -0.275408 -1.30834 0.580299 -3.53347 
248 3.0404 4.4947 -31.9832 -3.19622 -3.44466 -1.93598 -0.288682 -0.646741 0.381975 -3.53299 
249 1.23458 6.37832 -29.4092 -3.3124 -4.32288 -2.33423 -0.2859 -1.31602 0.535492 -3.53341 
250 4.75904 2.61256 -31.9806 -3.74188 -2.89512 -1.91924 -0.2292 0.150071 0.948826 -3.53295 
251 2.58615 2.379 -30.7035 -3.69345 -3.38446 -2.23927 -0.27528 -0.134797 0.444187 -3.52945 
252 2.55684 2.41077 -28.1366 -3.7246 -3.42049 -2.43393 -0.307947 -0.156581 0.423796 -3.52947 
253 2.98612 4.53216 -29.4157 -3.19681 -3.47823 -2.12371 -0.317081 -0.669482 0.346284 -3.53304 
254 4.72753 2.67037 -29.4128 -3.776 -2.90481 -2.10587 -0.268771 0.114236 0.92894 -3.53298 
255 0.800614 4.25153 -28.1352 -3.85276 -4.60151 -2.71469 -0.218646 -0.876811 0.369278 -3.53362 
256 0.747552 4.26184 -25.5722 -3.80754 -4.6507 -2.86922 -0.230271 -0.880456 0.328515 -3.53359 
257 1.15602 6.39404 -26.8462 -3.24771 -4.3541 -2.48037 -0.292194 -1.31893 0.481841 -3.53344 
258 2.93089 4.56944 -26.8513 -3.1667 -3.49533 -2.28496 -0.346648 -0.690852 0.306781 -3.53309 
259 1.07688 6.40906 -24.2859 -3.17216 -4.36581 -2.59627 -0.292285 -1.31874 0.426316 -3.5335 
260 4.69517 2.72821 -26.848 -3.7767 -2.89649 -2.26682 -0.310221 0.0740888 0.904739 -3.53303 
261 2.52682 2.44249 -25.5726 -3.72601 -3.44177 -2.60129 -0.342273 -0.179473 0.399363 -3.52951 
262 2.49609 2.47394 -23.0112 -3.70684 -3.44855 -2.73414 -0.372987 -0.198948 0.376314 -3.52956 
263 2.87478 4.60617 -24.2895 -3.11757 -3.49964 -2.41338 -0.372019 -0.708091 0.267554 -3.53315 
264 4.66179 2.78582 -24.2859 -3.75646 -2.88042 -2.39852 -0.349781 0.0363771 0.881061 -3.53308 
265 0.694032 4.27167 -23.0117 -3.74626 -4.68297 -2.99189 -0.236361 -0.88039 0.286512 -3.5336 
266 0.640205 4.28081 -20.4532 -3.68558 -4.70091 -3.08707 -0.235809 -0.878259 0.247427 -3.53362 
267 0.997321 6.42312 -21.7276 -3.0988 -4.36874 -2.68106 -0.286322 -1.31654 0.373625 -3.53358 
268 2.81786 4.64216 -21.7299 -3.06206 -3.50077 -2.51403 -0.392111 -0.720951 0.231006 -3.5332 
269 0.91749 6.43604 -19.1709 -3.0309 -4.36672 -2.74147 -0.27585 -1.31401 0.325241 -3.53367 
270 4.62738 2.84305 -21.726 -3.72395 -2.86151 -2.4978 -0.385354 0.000716707 0.858801 -3.53314 
271 2.46468 2.50497 -20.4519 -3.67259 -3.45226 -2.83915 -0.398089 -0.213285 0.355665 -3.52961 
272 2.43269 2.53551 -17.8944 -3.63744 -3.45415 -2.92006 -0.418716 -0.22509 0.337434 -3.52966 
273 2.76024 4.67727 -19.1721 -3.00747 -3.50058 -2.59145 -0.406206 -0.729906 0.199123 -3.53325 
274 4.59196 2.89978 -19.1678 -3.6865 -2.8507 -2.58106 -0.416309 -0.0304174 0.839397 -3.53317 
275 0.586188 4.2892 -17.8964 -3.62751 -4.71409 -3.16008 -0.230178 -0.875525 0.213142 -3.53365 
276 0.532044 4.29679 -15.3408 -3.57689 -4.72286 -3.21089 -0.221237 -0.872053 0.182753 -3.53368 
277 0.837443 6.4478 -16.6154 -2.97602 -4.36565 -2.78967 -0.262064 -1.31173 0.282625 -3.53372 
278 2.70197 4.71148 -16.6156 -2.95686 -3.50441 -2.65062 -0.415252 -0.735703 0.171496 -3.53327 
279 0.757256 6.45837 -14.0608 -2.9266 -4.36035 -2.82106 -0.244939 -1.30916 0.244459 -3.53379 
280 4.55557 2.95598 -16.6113 -3.64605 -2.84097 -2.64377 -0.441927 -0.0571223 0.823497 -3.5332 
281 2.40019 2.56555 -15.3381 -3.59753 -3.46139 -2.98028 -0.434102 -0.234558 0.323129 -3.52969 
282 2.36723 2.59509 -12.7829 -3.56207 -3.4697 -3.02701 -0.444863 -0.240667 0.311845 -3.52971 
283 2.64317 4.74478 -14.0603 -2.91014 -3.50735 -2.69583 -0.418553 -0.740093 0.147402 -3.5333 
284 4.51829 3.01165 -14.0558 -3.60651 -2.83781 -2.68472 -0.463094 -0.0794598 0.810732 -3.53324 
285 0.477843 4.30357 -12.7861 -3.53603 -4.73167 -3.24703 -0.207721 -0.869063 0.155421 -3.5337 
286 0.423648 4.30956 -10.232 -3.50089 -4.73704 -3.27462 -0.193056 -0.86705 0.130645 -3.53372 
287 0.677006 6.46777 -11.5069 -2.88881 -4.36033 -2.84361 -0.226229 -1.3068 0.209765 -3.53383 
288 2.58389 4.7772 -11.5058 -2.86971 -3.51577 -2.72867 -0.418014 -0.742824 0.127505 -3.53331 
289 0.596713 6.476 -8.95339 -2.85875 -4.36076 -2.85843 -0.206476 -1.30569 0.177917 -3.53386 
290 4.48019 3.06676 -11.5011 -3.57209 -2.83839 -2.71918 -0.480976 -0.0976303 0.799949 -3.53326 
291 2.33391 2.62412 -10.2285 -3.52904 -3.47856 -3.05809 -0.451851 -0.245798 0.301191 -3.52973 
292 2.30024 2.65264 -7.67453 -3.49826 -3.48891 -3.07472 -0.455115 -0.250796 0.292355 -3.52975 
293 2.5242 4.80872 -8.95183 -2.83749 -3.52428 -2.7489 -0.414262 -0.744586 0.109388 -3.53332 
294 4.44133 3.12132 -8.94704 -3.53831 -2.84333 -2.74113 -0.494522 -0.11449 0.791404 -3.53328 
295 0.369495 4.31476 -7.67833 -3.47343 -4.7425 -3.29244 -0.17554 -0.8649 0.109338 -3.53372 
296 0.315401 4.31922 -5.12494 -3.45223 -4.74628 -3.29971 -0.157687 -0.863516 0.0898464 -3.53373 
297 0.516432 6.48314 -6.4002 -2.83655 -4.3606 -2.86674 -0.185066 -1.30502 0.149889 -3.53389 
298 2.46416 4.83939 -6.39823 -2.80856 -3.53205 -2.75845 -0.407457 -0.745416 0.0932928 -3.53334 
299 0.436169 6.48919 -3.84716 -2.81993 -4.36087 -2.86964 -0.163443 -1.30437 0.122439 -3.5339 
300 4.40178 3.17531 -6.39337 -3.50808 -2.85121 -2.75163 -0.505467 -0.129117 0.783974 -3.5333 
301 2.2663 2.68067 -5.1209 -3.47104 -3.50001 -3.0837 -0.456328 -0.254736 0.285039 -3.52977 
302 2.23208 2.70823 -2.56744 -3.44629 -3.51259 -3.08513 -0.455209 -0.259165 0.278647 -3.52978 
303 2.40378 4.86922 -3.84486 -2.78481 -3.54156 -2.76258 -0.398674 -0.746941 0.0778429 -3.53335 
304 4.36155 3.22877 -3.83996 -3.48206 -2.86179 -2.75653 -0.514172 -0.143373 0.778249 -3.53331 
305 0.261365 4.32296 -2.57164 -3.43584 -4.74927 -3.30109 -0.139163 -0.86234 0.0710582 -3.53374 
306 0.355942 6.49417 -1.29417 -2.80838 -4.36329 -2.86823 -0.141379 -1.30456 0.0959442 -3.53391 
307 2.3431 4.89823 -1.29156 -2.76527 -3.55268 -2.76029 -0.387744 -0.748347 0.0629252 -3.53335 
308 4.32069 3.28169 -1.28664 -3.45811 -2.87562 -2.75511 -0.520499 -0.157067 0.772755 -3.53332 
309 2.4265 7.09008 -0.0146066 -2.23108 -3.36122 -2.42704 -0.345302 -1.1643 -0.150983 -3.53293 
310 0.424377 8.66863 -0.0168127 -2.26686 -4.04889 -2.50249 -0.137728 -1.70336 0.105994 -3.53364 
311 0.317884 8.67306 2.53595 -2.26208 -4.05367 -2.4956 -0.113242 -1.70458 0.0710849 -3.53364 