ITEM: TIMESTEP
0
ITEM: NUMBER OF ATOMS
37664
ITEM: BOX BOUNDS ff ff ff
-100 100
-100 100
-156.15 156.15
ITEM: ATOMS id x y z v_peratom_sxx v_peratom_syy v_peratom_szz v_peratom_sxy v_peratom_sxz v_peratom_syz c_atomPE 
1 -0.0105948 -0.000771131 -0.0207905 -5.20397 -5.17622 -9.52885 -0.0477759 0.296927 -0.108177 -3.51534 
2 -0.01241 -0.000547455 2.53299 -5.1859 -5.16933 -9.50781 -0.0480715 0.297072 -0.105352 -3.51543 
3 -0.0141336 -0.000331344 5.08705 -5.16343 -5.15802 -9.47691 -0.047111 0.293446 -0.100916 -3.51557 
4 -0.0157524 -0.000108264 7.64154 -5.13787 -5.14333 -9.43588 -0.0456851 0.287348 -0.0959492 -3.51575 
5 -0.0172615 0.000124391 10.1966 -5.10755 -5.1251 -9.38742 -0.0433847 0.279038 -0.0899306 -3.51597 
6 -0.0186253 0.000425438 12.7523 -5.06949 -5.09489 -9.32086 -0.0424169 0.26906 -0.0831985 -3.51629 
7 -0.0198159 0.000791552 15.309 -5.02761 -5.06403 -9.2394 -0.0389667 0.258571 -0.0747416 -3.51663 
8 -0.0207542 0.00123469 17.8668 -4.97258 -5.02086 -9.14016 -0.0370068 0.249551 -0.0643553 -3.51709 
9 -0.0214281 0.00177398 20.426 -4.91222 -4.9668 -9.01975 -0.0352844 0.241394 -0.0537583 -3.51762 
10 -0.0218029 0.00238175 22.9869 -4.83069 -4.89564 -8.865 -0.0326177 0.232685 -0.0446293 -3.51831 
11 -0.0218671 0.00300919 25.55 -4.72733 -4.8008 -8.67005 -0.0310641 0.225121 -0.0360779 -3.51916 
12 -0.0216034 0.00362609 28.1157 -4.59811 -4.67797 -8.43451 -0.028651 0.218065 -0.0282289 -3.52017 
13 -0.0210161 0.00417415 30.6844 -4.43462 -4.52195 -8.1609 -0.0291031 0.211287 -0.0251478 -3.52133 
14 -0.0200841 0.00456482 33.2562 -4.23493 -4.3266 -7.85466 -0.0269574 0.204823 -0.0248996 -3.52259 
15 -0.0187732 0.0047518 35.8311 -4.01124 -4.10446 -7.53406 -0.0258404 0.199948 -0.0276702 -3.52381 
16 -0.0170605 0.00472297 38.4087 -3.7731 -3.86705 -7.21013 -0.02554 0.19649 -0.0333624 -3.52489 
17 -0.0148508 0.00441725 40.9888 -3.53714 -3.62905 -6.89513 -0.0225404 0.195754 -0.0401929 -3.52574 
18 -0.0120024 0.00376466 43.571 -3.29897 -3.3865 -6.57592 -0.0204759 0.198823 -0.0489107 -3.52645 
19 -0.00830876 0.0027166 46.1556 -3.04074 -3.11803 -6.2178 -0.0181357 0.208377 -0.0590775 -3.52717 
20 -0.00351052 0.00114034 48.7429 -2.67736 -2.72048 -5.79026 -0.00872651 0.221249 -0.0716535 -3.52805 
21 5.95933e-07 -4.11185e-08 51.3317 -1.92152 -1.91821 -4.89817 0.000501744 -0.0116402 0.00380976 -3.53201 
22 4.01304e-07 -1.42881e-06 53.9138 -0.853344 -0.853414 -8.91775 -1.11746e-05 -0.000122041 -6.66323e-05 -3.48167 
23 8.71386e-07 -1.98378e-06 56.3885 1.68509 1.68513 1.875 -9.09919e-05 0.000103933 1.16376e-05 -2.55581 
24 -1.23087e-07 -1.12453e-06 -53.8876 -2.60419 -2.60431 -6.54887 -3.05014e-05 3.42969e-05 -8.3645e-05 -3.40184 
25 1.02659e-07 -1.55837e-06 -51.3239 -2.08195 -2.0877 -5.64374 -0.000756263 -0.0155418 0.00633835 -3.52882 
26 0.004225 -0.00170182 -48.7482 -2.89628 -2.83496 -6.38108 0.00435323 0.264639 -0.106717 -3.52554 
27 0.00943043 -0.00390428 -46.1688 -3.24826 -3.15653 -6.6031 0.00679901 0.229481 -0.0993621 -3.52596 
28 0.0124372 -0.00555087 -43.5887 -3.52568 -3.42232 -6.85582 0.0104137 0.212576 -0.0880184 -3.52553 
29 0.0140043 -0.00675771 -41.0094 -3.76788 -3.66392 -7.1293 0.0113251 0.208399 -0.0748856 -3.52497 
30 0.0146529 -0.00760576 -38.4317 -4.00611 -3.89948 -7.42203 0.014107 0.208851 -0.0622567 -3.52419 
31 0.0147254 -0.00810291 -35.856 -4.24215 -4.13143 -7.72422 0.0140139 0.209909 -0.0525581 -3.52319 
32 0.0143767 -0.00826669 -33.2827 -4.46237 -4.3524 -8.03306 0.0149168 0.209879 -0.0451247 -3.52203 
33 0.0136547 -0.00809567 -30.7123 -4.66589 -4.54684 -8.33928 0.0119495 0.206008 -0.0420967 -3.52079 
34 0.0125762 -0.00760862 -28.145 -4.83173 -4.71196 -8.61318 0.00978379 0.201798 -0.0437544 -3.51961 
35 0.0111372 -0.00689044 -25.5805 -4.96712 -4.84238 -8.8532 0.00380366 0.19871 -0.0491986 -3.51854 
36 0.00936504 -0.00604419 -23.0188 -5.06679 -4.9445 -9.05403 -0.00459447 0.19793 -0.0589743 -3.51763 
37 0.00729245 -0.00515608 -20.4593 -5.13691 -5.01834 -9.20682 -0.0132949 0.203371 -0.0708092 -3.51692 
38 0.00501424 -0.00430014 -17.9016 -5.18215 -5.07228 -9.32308 -0.020008 0.215926 -0.083719 -3.51638 
39 0.00262081 -0.00351111 -15.3453 -5.21345 -5.11286 -9.4114 -0.0283864 0.230197 -0.0941175 -3.51596 
40 0.000194773 -0.00281315 -12.7901 -5.23063 -5.14233 -9.47621 -0.0350962 0.244854 -0.101752 -3.51565 
41 -0.00218017 -0.0022305 -10.2357 -5.23618 -5.16083 -9.51406 -0.0399416 0.260915 -0.107621 -3.51546 
42 -0.00446495 -0.00175662 -7.6817 -5.23564 -5.1721 -9.53398 -0.042988 0.274388 -0.110826 -3.51534 
43 -0.00663269 -0.00137315 -5.128 -5.22946 -5.17818 -9.54352 -0.0455857 0.285847 -0.111348 -3.51529 
44 -0.00867389 -0.00104215 -2.57441 -5.21892 -5.17913 -9.54108 -0.0470208 0.2933 -0.110312 -3.51529 
45 0.0835391 2.1593 1.25539 -4.09453 -5.13628 -3.82521 -0.100532 -0.351281 -0.00274142 -3.52912 
46 0.0556388 2.16039 3.8092 -4.07991 -5.13577 -3.80656 -0.0846506 -0.350481 -0.0118987 -3.52914 
47 0.0278512 2.16114 6.36337 -4.06709 -5.133 -3.78042 -0.0681511 -0.351081 -0.0209024 -3.52917 
48 0.000164586 2.16157 8.918 -4.05622 -5.12747 -3.7484 -0.0514963 -0.352526 -0.0307566 -3.52919 
49 -0.0273902 2.16169 11.4732 -4.0443 -5.12101 -3.70253 -0.0345854 -0.354108 -0.0392685 -3.52924 
50 -0.054767 2.16154 14.0293 -4.03861 -5.1073 -3.64387 -0.0173488 -0.355755 -0.04936 -3.52929 
51 -0.0819278 2.16113 16.5864 -4.02842 -5.09123 -3.57581 -0.00170229 -0.357954 -0.0614344 -3.52935 
52 -0.108787 2.16046 19.1447 -4.02332 -5.06665 -3.48911 0.0139366 -0.35927 -0.0736064 -3.52943 
53 -0.13531 2.15955 21.7046 -4.01671 -5.03579 -3.37963 0.0267605 -0.360513 -0.0873523 -3.52953 
54 -0.161502 2.15837 24.2664 -4.01124 -4.989 -3.24298 0.0380826 -0.361989 -0.10503 -3.52964 
55 -0.18731 2.15691 26.8306 -3.99289 -4.92261 -3.07416 0.0465833 -0.362186 -0.126021 -3.52981 
56 -0.212704 2.15523 29.3975 -3.96587 -4.8256 -2.87471 0.0516976 -0.361288 -0.147389 -3.53001 
57 -0.237658 2.15332 31.9675 -3.90826 -4.69814 -2.64322 0.055261 -0.359186 -0.167761 -3.53027 
58 -0.262115 2.15123 34.5407 -3.80987 -4.52523 -2.38924 0.0570001 -0.355702 -0.182153 -3.53063 
59 -0.286002 2.14896 37.1169 -3.67176 -4.31974 -2.12492 0.0581605 -0.350043 -0.188776 -3.53103 
60 -0.309191 2.14643 39.6958 -3.49295 -4.0892 -1.85885 0.0604263 -0.341371 -0.196974 -3.53144 
61 -0.331555 2.14349 42.2769 -3.29244 -3.85206 -1.59809 0.0657767 -0.329636 -0.211137 -3.53178 
62 -0.352956 2.14002 44.86 -3.08274 -3.59458 -1.32516 0.0698547 -0.313331 -0.236582 -3.53205 
63 -0.373178 2.13621 47.4452 -2.83382 -3.27614 -1.03244 0.0719785 -0.288282 -0.267186 -3.5323 
64 -0.392512 2.13371 50.032 -2.37741 -2.80153 -0.4394 0.0249771 -0.357798 -0.231241 -3.53331 
65 -0.418483 2.1304 52.6263 -1.76617 -2.00396 -0.56019 0.0452826 -0.308625 -0.730614 -3.52454 
66 -0.44812 2.14653 55.1778 6.97766 7.73879 2.43026 0.0332748 -0.597218 1.7697 -3.02528 
67 0.649859 2.05055 -55.162 1.39012 0.843262 -0.676029 -0.188178 -0.0991613 1.20806 -3.26035 
68 0.633027 2.08274 -52.6122 -1.11444 -2.21992 -0.458602 -0.374848 -0.488773 -0.161775 -3.53572 
69 0.607028 2.08678 -50.0319 -2.03084 -2.64215 -0.979922 -0.12006 -0.377112 0.0651158 -3.53408 
70 0.588001 2.08679 -47.4556 -2.80875 -3.15149 -1.4036 -0.1281 -0.29508 0.136321 -3.53282 
71 0.567793 2.08907 -44.8757 -3.25922 -3.51217 -1.55569 -0.100612 -0.311092 0.184753 -3.53211 
72 0.545914 2.0924 -42.2958 -3.57126 -3.78655 -1.77422 -0.0837087 -0.325999 0.202865 -3.53164 
73 0.522724 2.09622 -39.717 -3.82177 -4.03539 -2.01565 -0.0786052 -0.339348 0.214836 -3.53117 
74 0.498466 2.10043 -37.1401 -4.0304 -4.26167 -2.26847 -0.0795556 -0.35245 0.227268 -3.53071 
75 0.473347 2.10503 -34.5656 -4.19139 -4.4636 -2.52623 -0.0874225 -0.363201 0.232489 -3.53028 
76 0.447483 2.11003 -31.9941 -4.30465 -4.63619 -2.77845 -0.102481 -0.372674 0.228469 -3.52989 
77 0.42096 2.11534 -29.4257 -4.36683 -4.77225 -3.00786 -0.120299 -0.380379 0.214031 -3.52961 
78 0.393846 2.12081 -26.8604 -4.38836 -4.86891 -3.20823 -0.138506 -0.38656 0.191335 -3.52942 
79 0.366222 2.12624 -24.2979 -4.37902 -4.94408 -3.3798 -0.15485 -0.389599 0.164253 -3.52929 
80 0.338208 2.13142 -21.7379 -4.35218 -4.99615 -3.51599 -0.166367 -0.387442 0.137683 -3.52921 
81 0.309921 2.13625 -19.1798 -4.31353 -5.03469 -3.61747 -0.174042 -0.383128 0.111911 -3.52918 
82 0.281492 2.14065 -16.6232 -4.27492 -5.06368 -3.69407 -0.175172 -0.378391 0.0886844 -3.52915 
83 0.252999 2.14461 -14.0677 -4.2379 -5.08581 -3.75275 -0.171916 -0.372702 0.068593 -3.52913 
84 0.224514 2.14812 -11.5131 -4.20704 -5.10454 -3.79473 -0.164658 -0.366329 0.053414 -3.5291 
85 0.19611 2.15117 -8.95901 -4.17513 -5.11655 -3.81835 -0.15568 -0.361542 0.0390231 -3.52911 
86 0.167803 2.15378 -6.40528 -4.15056 -5.12623 -3.83355 -0.143392 -0.357299 0.026793 -3.5291 
87 0.139625 2.156 -3.85173 -4.12911 -5.13213 -3.83848 -0.130196 -0.353855 0.0163811 -3.5291 
88 0.111542 2.15784 -1.29821 -4.11068 -5.13552 -3.83559 -0.115731 -0.352187 0.00686948 -3.52911 
89 0.205699 4.32589 -0.0210426 -3.43107 -4.75313 -3.29589 -0.126764 -0.853638 0.0533488 -3.53375 
90 0.27374 6.49793 1.25634 -2.8053 -4.3699 -2.86083 -0.125455 -1.29866 0.0716409 -3.53392 
91 2.19592 2.735 -0.0160678 -3.43125 -3.52281 -3.08307 -0.457383 -0.256077 0.273834 -3.52978 
92 2.16092 2.76164 2.53755 -3.40818 -3.53911 -3.07042 -0.452002 -0.26134 0.26709 -3.52978 
93 2.28016 4.92603 1.25971 -2.75344 -3.56362 -2.75569 -0.379941 -0.743623 0.0513801 -3.53336 
94 4.27731 3.33352 1.26515 -3.44232 -2.8906 -2.75061 -0.528782 -0.165997 0.768196 -3.53332 
95 0.151564 4.3282 2.53246 -3.42045 -4.75588 -3.28506 -0.106388 -0.853617 0.0351538 -3.53375 
96 0.0975398 4.32979 5.08621 -3.41294 -4.75905 -3.26781 -0.0853142 -0.853703 0.0165445 -3.53376 
97 0.193411 6.50074 3.80967 -2.79916 -4.37474 -2.85 -0.101966 -1.29939 0.0449484 -3.53392 
98 2.21871 4.95336 3.81328 -2.73771 -3.57819 -2.74136 -0.364818 -0.745995 0.0357195 -3.53336 
99 0.113214 6.50248 6.36326 -2.7974 -4.38058 -2.83425 -0.0785127 -1.30022 0.0181813 -3.53391 
100 4.23503 3.38533 3.8187 -3.41948 -2.91019 -2.73734 -0.530213 -0.180198 0.762314 -3.53333 
101 2.1257 2.7878 5.0914 -3.38647 -3.55627 -3.05094 -0.444203 -0.267207 0.259904 -3.52979 
102 2.09025 2.81349 7.64561 -3.36618 -3.57482 -3.02525 -0.434646 -0.274613 0.252459 -3.52979 
103 2.15704 4.97982 6.36714 -2.72495 -3.5942 -2.72103 -0.347971 -0.74884 0.0196554 -3.53337 
104 4.1922 3.43654 6.3725 -3.39835 -2.93271 -2.71793 -0.529266 -0.194706 0.756244 -3.53334 
105 0.0436319 4.33071 7.64035 -3.40848 -4.76124 -3.24396 -0.0643401 -0.854741 -0.00243591 -3.53376 
106 -0.0101569 4.33096 10.195 -3.40838 -4.76414 -3.21462 -0.0422293 -0.856426 -0.0223137 -3.53375 
107 0.0331476 6.5032 8.91727 -2.79985 -4.38747 -2.81308 -0.0537659 -1.30174 -0.00989277 -3.53389 
108 2.09513 5.00547 8.9214 -2.71577 -3.6109 -2.69475 -0.329233 -0.753194 0.00255371 -3.53337 
109 -0.0467491 6.50287 11.4718 -2.80776 -4.39548 -2.78709 -0.0295812 -1.30463 -0.0395361 -3.53386 
110 4.14878 3.48718 8.92669 -3.37892 -2.95799 -2.69179 -0.526087 -0.210822 0.750715 -3.53334 
111 2.05456 2.83873 10.2003 -3.34925 -3.59315 -2.99012 -0.42312 -0.282557 0.243732 -3.52979 
112 2.01869 2.86349 12.7557 -3.33191 -3.61279 -2.94662 -0.408551 -0.29068 0.235459 -3.52978 
113 2.03302 5.03026 11.4762 -2.71046 -3.62986 -2.65787 -0.307954 -0.757749 -0.0167383 -3.53336 
114 4.10478 3.53722 11.4814 -3.3622 -2.98211 -2.65763 -0.519765 -0.227639 0.743318 -3.53335 
115 -0.0637537 4.33054 12.7503 -3.40877 -4.76356 -3.1731 -0.0200745 -0.857549 -0.0428269 -3.53377 
116 -0.117134 4.32951 15.3065 -3.41883 -4.76312 -3.12507 0.00133875 -0.85992 -0.0663678 -3.53375 
117 -0.126416 6.50152 14.027 -2.81994 -4.40444 -2.75213 -0.00432267 -1.30782 -0.0708623 -3.53383 
118 1.97078 5.05419 14.0318 -2.70692 -3.64799 -2.61526 -0.284706 -0.763159 -0.0376393 -3.53336 
119 -0.205815 6.49919 16.5831 -2.83458 -4.41357 -2.70624 0.0202273 -1.30963 -0.105771 -3.5338 
120 4.0603 3.58663 14.0368 -3.34765 -3.0115 -2.61449 -0.51036 -0.245583 0.734764 -3.53335 
121 1.98267 2.8878 15.3119 -3.31741 -3.6334 -2.89373 -0.392425 -0.30105 0.225942 -3.52977 
122 1.94654 2.91163 17.8692 -3.3064 -3.649 -2.82344 -0.374577 -0.311514 0.212969 -3.52976 
123 1.90841 5.07728 16.5882 -2.70945 -3.66578 -2.56366 -0.259782 -0.768877 -0.0599248 -3.53335 
124 4.01531 3.63541 16.5931 -3.33707 -3.04274 -2.56206 -0.499053 -0.265213 0.725948 -3.53335 
125 -0.170248 4.32786 17.8637 -3.42855 -4.76053 -3.06232 0.0223736 -0.861995 -0.0915457 -3.53375 
126 -0.222983 4.32558 20.4223 -3.4449 -4.75661 -2.98409 0.042576 -0.863079 -0.120673 -3.53375 
127 -0.284865 6.49583 19.1403 -2.86056 -4.42319 -2.65679 0.0434914 -1.3124 -0.144993 -3.53373 
128 1.84599 5.09945 19.1458 -2.71474 -3.68358 -2.49251 -0.232599 -0.775591 -0.0861062 -3.53335 
129 -0.363475 6.49146 21.6987 -2.88958 -4.43158 -2.58804 0.0658714 -1.31461 -0.187342 -3.53368 
130 3.9699 3.68348 19.1505 -3.32696 -3.07495 -2.49314 -0.48319 -0.287817 0.714668 -3.53335 
131 1.91038 2.93494 20.4279 -3.29454 -3.6664 -2.73751 -0.352894 -0.322703 0.199483 -3.52975 
132 1.8742 2.95773 22.9883 -3.2862 -3.67873 -2.6358 -0.329902 -0.336779 0.183167 -3.52971 
133 1.78361 5.12067 21.7049 -2.72886 -3.69869 -2.41052 -0.204608 -0.785418 -0.117053 -3.53332 
134 3.92411 3.73082 21.7094 -3.32021 -3.10957 -2.40925 -0.463298 -0.31261 0.699582 -3.53333 
135 -0.275335 4.3227 22.9825 -3.46579 -4.74261 -2.88825 0.0599402 -0.863714 -0.153904 -3.53375 
136 -0.327278 4.3192 25.5447 -3.48693 -4.71889 -2.76719 0.0760183 -0.864374 -0.191046 -3.53376 
137 -0.441606 6.48612 24.2589 -2.92549 -4.43567 -2.49752 0.0867785 -1.31603 -0.237138 -3.53362 
138 1.72125 5.14095 24.2657 -2.74376 -3.71121 -2.30927 -0.173292 -0.797516 -0.15285 -3.53329 
139 -0.519198 6.47983 26.8211 -2.96367 -4.42928 -2.38661 0.106081 -1.31625 -0.289108 -3.53357 
140 3.87794 3.77738 24.27 -3.31727 -3.14031 -2.31006 -0.440707 -0.340832 0.679273 -3.5333 
141 1.83802 2.97996 25.5507 -3.27392 -3.68175 -2.50545 -0.303983 -0.353348 0.161511 -3.52967 
142 1.80195 3.00163 28.1157 -3.25496 -3.66967 -2.34762 -0.276084 -0.370444 0.138389 -3.52963 
143 1.65899 5.16026 26.8287 -2.76095 -3.71105 -2.18011 -0.141298 -0.809775 -0.191942 -3.53326 
144 3.83148 3.82312 26.8327 -3.30907 -3.16721 -2.18353 -0.413068 -0.372435 0.655901 -3.53327 
145 -0.378723 4.31517 28.1093 -3.50582 -4.67833 -2.61247 0.0894554 -0.86235 -0.229386 -3.53381 
146 -0.429637 4.31072 30.6769 -3.51017 -4.60827 -2.42645 0.0989936 -0.858766 -0.269098 -3.53391 
147 -0.596161 6.47277 29.3858 -3.00131 -4.40423 -2.24309 0.122617 -1.31458 -0.343293 -3.53355 
148 1.59695 5.17872 29.3943 -2.7717 -3.69827 -2.02458 -0.107864 -0.823289 -0.233331 -3.53322 
149 -0.672454 6.46517 31.9535 -3.0255 -4.35494 -2.06826 0.13594 -1.31044 -0.39705 -3.53357 
150 3.78488 3.86808 29.398 -3.29734 -3.18344 -2.02877 -0.383867 -0.406575 0.629514 -3.53322 
151 1.76608 3.02283 30.6835 -3.21986 -3.63628 -2.16363 -0.247056 -0.386384 0.114861 -3.52959 
152 1.73058 3.04366 33.2545 -3.15989 -3.5675 -1.94764 -0.221269 -0.398356 0.0941326 -3.52958 
153 1.53524 5.19651 31.9629 -2.77318 -3.66089 -1.84431 -0.078417 -0.837043 -0.272904 -3.53317 
154 3.73832 3.91235 31.9663 -3.26702 -3.17634 -1.85167 -0.353332 -0.437823 0.60129 -3.53318 
155 -0.479982 4.30599 33.2476 -3.48773 -4.50151 -2.21213 0.10538 -0.853915 -0.302362 -3.53407 
156 -0.529641 4.30117 35.8217 -3.42263 -4.34464 -1.96965 0.108256 -0.847429 -0.325702 -3.53434 
157 -0.747982 6.45735 34.5245 -3.01981 -4.25412 -1.85471 0.14513 -1.30408 -0.439288 -3.53372 
158 1.47407 5.21391 34.5347 -2.74473 -3.58571 -1.6409 -0.05322 -0.845067 -0.304936 -3.53315 
159 -0.822642 6.44966 37.0991 -2.9648 -4.09782 -1.6158 0.151197 -1.29277 -0.46802 -3.53399 
160 3.69216 3.95613 34.5377 -3.20829 -3.13729 -1.64806 -0.325882 -0.462583 0.574782 -3.53315 
161 1.69566 3.06427 35.8288 -3.05629 -3.4563 -1.71372 -0.197974 -0.402527 0.0805916 -3.52965 
162 1.66153 3.08475 38.406 -2.90717 -3.29379 -1.46873 -0.181678 -0.397929 0.0750098 -3.52983 
163 1.41374 5.23132 37.1097 -2.66654 -3.46023 -1.4102 -0.0349952 -0.844337 -0.321926 -3.53322 
164 3.64679 3.99964 37.1125 -3.10237 -3.04303 -1.41994 -0.304997 -0.474782 0.556724 -3.53323 
165 -0.578492 4.29628 38.3989 -3.30338 -4.14146 -1.71928 0.111379 -0.836016 -0.340787 -3.5347 
166 -0.626367 4.29112 40.9786 -3.1423 -3.90991 -1.47603 0.112153 -0.819383 -0.357347 -3.53502 
167 -0.896276 6.44215 39.6768 -2.85122 -3.88246 -1.37221 0.151574 -1.27506 -0.486174 -3.53435 
168 1.35448 5.24884 39.6878 -2.53539 -3.28388 -1.1744 -0.0265317 -0.831705 -0.326523 -3.5334 
169 -0.968705 6.43451 42.2568 -2.68702 -3.62631 -1.14116 0.15027 -1.2519 -0.504503 -3.5347 
170 3.60248 4.04301 39.6902 -2.94001 -2.89771 -1.18875 -0.290491 -0.475124 0.548139 -3.5334 
171 1.62827 3.10497 40.9857 -2.72293 -3.09815 -1.21617 -0.169965 -0.391548 0.0688794 -3.53006 
172 1.59587 3.1248 43.5675 -2.51171 -2.86622 -0.95954 -0.161329 -0.387224 0.0545519 -3.53035 
173 1.29644 5.26634 42.268 -2.35752 -3.0596 -0.941581 -0.0254105 -0.813862 -0.334594 -3.53366 
174 3.55923 4.08616 42.2701 -2.72948 -2.70283 -0.955645 -0.280959 -0.474465 0.536414 -3.53366 
175 -0.673166 4.28549 43.5601 -2.95 -3.65856 -1.23098 0.115809 -0.799709 -0.381953 -3.53532 
176 -0.718849 4.27935 46.1432 -2.74108 -3.3786 -0.965156 0.11695 -0.774897 -0.424006 -3.53558 
177 -1.03992 6.42657 44.838 -2.48387 -3.33333 -0.925941 0.147847 -1.22675 -0.528149 -3.53504 
178 1.23953 5.2837 44.8498 -2.13573 -2.79681 -0.707755 -0.0278995 -0.799095 -0.356862 -3.53398 
179 -1.11017 6.41863 47.4196 -2.23941 -2.99619 -0.732423 0.144183 -1.19996 -0.552185 -3.5354 
180 3.51693 4.12904 44.8515 -2.48115 -2.47051 -0.732834 -0.276155 -0.479634 0.51326 -3.53395 
181 1.56432 3.14422 46.1509 -2.28446 -2.60743 -0.684514 -0.156757 -0.390768 0.0246297 -3.53062 
182 1.53385 3.1637 48.7361 -2.03812 -2.3387 -0.314468 -0.169507 -0.399645 -0.0105518 -3.53028 
183 1.18349 5.30094 47.4324 -1.88876 -2.48907 -0.474318 -0.0510238 -0.79954 -0.402859 -3.53423 
184 3.4755 4.1717 47.4335 -2.19287 -2.208 -0.525112 -0.277674 -0.499422 0.468599 -3.53416 
185 -0.763411 4.27372 48.7278 -2.54613 -3.03951 -0.612622 0.1061 -0.734906 -0.442084 -3.53535 
186 -0.811621 4.26877 51.3169 -1.98908 -2.34778 0.329372 0.0837346 -0.850082 -0.652446 -3.538 
187 -1.17889 6.41384 50.0002 -2.01568 -2.54152 -0.300238 0.05199 -1.21818 -0.63106 -3.53583 
188 1.12775 5.31799 50.0156 -1.55508 -2.06112 0.00553584 -0.0986107 -0.903107 -0.579092 -3.53493 
189 -1.25707 6.40546 52.5877 -1.61281 -2.4864 0.643691 0.176659 -1.31765 -0.611852 -3.5328 
190 3.43505 4.21346 50.0156 -1.74898 -1.84141 -0.0275313 -0.302009 -0.632523 0.321839 -3.53496 
191 1.50027 3.18358 51.3264 -1.43159 -1.69942 0.663718 -0.172743 -0.556872 -0.131233 -3.53266 
192 1.46587 3.20964 53.9052 0.0264485 0.953677 -0.796761 0.566149 -0.561354 0.138439 -3.37565 
193 1.06597 5.33731 52.6041 -1.24953 -1.89897 0.440667 -0.237224 -0.800999 -0.410469 -3.52777 
194 3.38747 4.26008 52.6041 -1.41011 -1.71475 0.388971 -0.39024 -0.638939 0.588027 -3.52745 
195 -0.866323 4.2769 53.8949 -0.0503655 -0.206662 -1.1798 0.0795436 -1.26174 1.02744 -3.38132 
196 1.3298 4.1174 -56.3442 5.06956 2.90504 1.60221 -1.25505 -0.273844 0.110338 -2.79034 
197 -1.33605 6.40133 55.1665 4.17883 2.79817 1.28958 0.319726 -1.52342 0.198603 -3.26107 
198 1.00488 5.36129 55.1754 5.64358 6.63235 2.70852 0.370534 -0.63628 -0.0317174 -3.15047 
199 1.98371 6.26223 -55.1334 6.94037 9.11546 2.93013 0.134056 -0.847993 -0.525964 -3.02309 
200 3.34328 4.30996 55.1754 5.53086 7.35917 2.86983 0.118454 -0.278109 0.56317 -3.15116 
201 2.87095 2.09325 -56.362 4.04258 6.00656 1.88172 -3.16464 0.252973 0.342092 -2.79939 
202 2.84551 2.1252 -53.8874 0.165682 0.763695 -3.0266 -0.981818 -0.732728 -0.162261 -3.51266 
203 3.53831 4.21674 -55.1525 6.03175 6.27403 1.75879 0.302407 -1.21926 -0.0444462 -3.14331 
204 5.07312 2.13635 -55.1525 6.04998 7.039 2.00263 0.445971 -0.528042 0.0807135 -3.14511 
205 1.29262 4.16451 -53.8815 0.861044 -0.347168 -3.67605 -0.408366 -0.573957 0.838965 -3.51412 
206 1.24176 4.17585 -51.3147 -1.29172 -1.91635 -0.413199 -0.214989 -0.888942 0.219834 -3.53918 
207 1.90264 6.26187 -52.5941 -0.919636 -1.45687 -0.5725 -0.184231 -1.16826 0.820062 -3.52797 
208 3.4607 4.22944 -52.6036 -0.751569 -0.927009 0.0930443 -0.677614 -0.496736 0.190877 -3.53023 
209 1.82403 6.27282 -50.0101 -1.65807 -2.38239 -0.332393 -0.165831 -1.22392 0.433441 -3.53689 
210 5.01221 2.17771 -52.6036 -1.34385 -0.350243 0.0522243 -0.502773 0.0187021 0.99124 -3.52956 
211 2.80522 2.14769 -51.32 -1.10708 -0.951929 -0.158986 -0.280015 -0.342254 0.265099 -3.53424 
212 2.77505 2.17381 -48.7418 -2.07676 -1.88875 -0.678714 -0.3016 -0.0917525 0.362295 -3.53078 
213 3.40036 4.25787 -50.02 -1.4796 -1.69596 -0.229922 -0.421796 -0.647788 0.304907 -3.53486 
214 4.971 2.23184 -50.02 -1.89943 -1.30291 -0.191901 -0.302233 0.0769989 0.840356 -3.53492 
215 1.19291 4.18006 -48.7366 -2.29797 -2.8269 -0.918712 -0.193492 -0.737068 0.274481 -3.53639 
216 1.14851 4.18515 -46.1569 -2.80103 -3.24075 -1.12676 -0.172954 -0.756807 0.395021 -3.53607 
217 1.75475 6.27845 -47.4322 -2.22459 -2.87104 -0.812153 -0.228698 -1.17565 0.545989 -3.53594 
218 3.35041 4.28656 -47.4432 -1.98777 -2.22283 -0.705719 -0.305114 -0.545019 0.361935 -3.53424 
219 1.68472 6.28966 -44.8527 -2.62765 -3.22067 -0.995986 -0.21817 -1.19084 0.604359 -3.53539 
220 4.93964 2.28299 -47.4421 -2.41401 -1.79993 -0.663634 -0.210523 0.193791 0.867057 -3.53424 
221 2.74987 2.19978 -46.1621 -2.52074 -2.28141 -0.881096 -0.230225 -0.068596 0.405901 -3.53077 
222 2.72477 2.22734 -43.5817 -2.86028 -2.58562 -1.09605 -0.210408 -0.0761966 0.423109 -3.53036 
223 3.30079 4.31789 -44.8638 -2.37518 -2.57135 -0.851834 -0.26517 -0.554064 0.391933 -3.53394 
224 4.91028 2.33489 -44.8624 -2.80437 -2.14039 -0.834333 -0.171313 0.209445 0.895907 -3.53389 
225 1.10287 4.19276 -43.5768 -3.16294 -3.54904 -1.34976 -0.156162 -0.777629 0.423282 -3.53552 
226 1.05582 4.20127 -40.9974 -3.43964 -3.81277 -1.58663 -0.150829 -0.801309 0.433874 -3.53505 
227 1.61362 6.30256 -42.2733 -2.932 -3.51568 -1.21816 -0.219033 -1.21919 0.623351 -3.53487 
228 3.25078 4.35084 -42.2841 -2.67134 -2.8545 -1.05762 -0.248194 -0.571472 0.406416 -3.53359 
229 1.54098 6.3163 -39.6951 -3.15339 -3.77516 -1.45519 -0.228878 -1.2481 0.631213 -3.53439 
230 4.88124 2.38796 -42.2824 -3.11269 -2.40801 -1.04198 -0.158863 0.206174 0.918509 -3.53354 
231 2.69889 2.25588 -41.002 -3.13167 -2.83145 -1.32606 -0.205002 -0.0853805 0.437334 -3.53004 
232 2.67214 2.2853 -38.4239 -3.35365 -3.03658 -1.56626 -0.208944 -0.0922989 0.450733 -3.52975 
233 3.19994 4.38504 -39.7055 -2.90143 -3.07954 -1.28277 -0.242954 -0.586743 0.416056 -3.5333 
234 4.85177 2.44223 -39.7036 -3.36161 -2.61138 -1.26902 -0.158944 0.202428 0.940851 -3.53325 
235 1.00736 4.21029 -38.4197 -3.6512 -4.04868 -1.83169 -0.154822 -0.822363 0.441678 -3.5346 
236 0.95759 4.21984 -35.8443 -3.79771 -4.25013 -2.0771 -0.168756 -0.841085 0.440992 -3.5342 
237 1.46673 6.33079 -37.1191 -3.29953 -3.9886 -1.70397 -0.245228 -1.27163 0.630032 -3.53397 
238 3.14817 4.42042 -37.1289 -3.07031 -3.25265 -1.51784 -0.249457 -0.601085 0.420408 -3.53309 
239 1.39101 6.34604 -34.5463 -3.37255 -4.15114 -1.94495 -0.263669 -1.2921 0.615412 -3.53364 
240 4.8218 2.49773 -37.1268 -3.55769 -2.7574 -1.49791 -0.171385 0.196791 0.957075 -3.53304 
241 2.64464 2.31556 -35.8481 -3.52521 -3.19565 -1.80319 -0.221872 -0.0993671 0.459413 -3.52956 
242 2.61649 2.34658 -33.275 -3.64969 -3.30353 -2.03537 -0.244185 -0.111737 0.457617 -3.52946 
243 3.09552 4.45687 -34.5552 -3.17414 -3.36723 -1.74425 -0.265734 -0.620698 0.409536 -3.53299 
244 4.79137 2.55432 -34.5527 -3.68863 -2.84405 -1.72157 -0.194773 0.180635 0.958939 -3.53295 
245 0.906689 4.22992 -33.2719 -3.87758 -4.40809 -2.3188 -0.18636 -0.856757 0.430132 -3.5339 
246 0.854816 4.24039 -30.7029 -3.90204 -4.52393 -2.54159 -0.205244 -0.866888 0.406224 -3.53369 
247 1.31403 6.36191 -31.9769 -3.37564 -4.25777 -2.16226 -0.281132 -1.30669 0.582374 -3.53346 
248 3.04197 4.49408 -31.9846 -3.22052 -3.43508 -1.95338 -0.290811 -0.643872 0.38398 -3.53298 
249 1.23601 6.37797 -29.4111 -3.33449 -4.31917 -2.34677 -0.292865 -1.31428 0.537936 -3.53341 
250 4.7604 2.61173 -31.9818 -3.76745 -2.88596 -1.93247 -0.228926 0.153095 0.948556 -3.53293 
251 2.58769 2.37817 -30.7051 -3.72186 -3.37501 -2.25478 -0.275061 -0.129653 0.446016 -3.52943 
252 2.5582 2.40999 -28.1383 -3.75233 -3.40987 -2.44889 -0.308823 -0.151861 0.425518 -3.52946 
253 2.98749 4.53158 -29.4173 -3.22016 -3.46763 -2.14071 -0.320243 -0.666926 0.348299 -3.53303 
254 4.72873 2.66956 -29.4141 -3.8011 -2.89514 -2.11844 -0.269477 0.116831 0.92867 -3.53297 
255 0.802152 4.25098 -28.1372 -3.8803 -4.5981 -2.72799 -0.222528 -0.873602 0.371539 -3.53361 
256 0.748815 4.26138 -25.5744 -3.83299 -4.64682 -2.88084 -0.235762 -0.877022 0.330551 -3.53358 
257 1.15717 6.39376 -26.8483 -3.2673 -4.35019 -2.49131 -0.300431 -1.31672 0.484278 -3.53344 
258 2.93202 4.5689 -26.853 -3.18847 -3.48473 -2.30175 -0.350985 -0.688361 0.30888 -3.53307 
259 1.07771 6.40885 -24.2881 -3.18897 -4.36194 -2.6061 -0.30142 -1.31593 0.428563 -3.53351 
260 4.69615 2.72743 -26.8494 -3.8007 -2.88665 -2.27904 -0.312005 0.0763185 0.904388 -3.53301 
261 2.52794 2.44178 -25.5745 -3.75249 -3.43108 -2.61601 -0.344561 -0.175129 0.400761 -3.52949 
262 2.49694 2.47329 -23.0132 -3.73163 -3.43767 -2.74801 -0.37651 -0.194697 0.377479 -3.52954 
263 2.87562 4.60568 -24.2914 -3.13702 -3.48907 -2.42918 -0.377279 -0.705405 0.269657 -3.53314 
264 4.66252 2.78508 -24.2874 -3.77897 -2.87072 -2.4103 -0.352568 0.0385922 0.880696 -3.53307 
265 0.694982 4.27129 -23.0141 -3.76873 -4.67933 -3.00192 -0.2432 -0.876404 0.288085 -3.5336 
266 0.640825 4.28051 -20.4558 -3.70545 -4.6973 -3.09554 -0.243532 -0.873508 0.248577 -3.53363 
267 0.997822 6.42296 -21.73 -3.11322 -4.36539 -2.68936 -0.295896 -1.31306 0.375715 -3.53359 
268 2.81839 4.64171 -21.7319 -3.07917 -3.49071 -2.52852 -0.39801 -0.717876 0.233049 -3.53319 
269 0.91766 6.43592 -19.1734 -3.04308 -4.36407 -2.74803 -0.285589 -1.30995 0.327163 -3.53368 
270 4.62783 2.84234 -21.7276 -3.74468 -2.85193 -2.50825 -0.388962 0.00290716 0.858335 -3.53313 
271 2.46524 2.50438 -20.454 -3.69482 -3.44169 -2.852 -0.402516 -0.20867 0.356681 -3.5296 
272 2.43294 2.53498 -17.8965 -3.65756 -3.44394 -2.93182 -0.42392 -0.220062 0.338311 -3.52964 
273 2.76045 4.67685 -19.1742 -3.02253 -3.49117 -2.60452 -0.412491 -0.726349 0.201246 -3.53324 
274 4.59212 2.8991 -19.1695 -3.70544 -2.84218 -2.59107 -0.420569 -0.0281212 0.838788 -3.53315 
275 0.586475 4.28896 -17.8991 -3.64474 -4.71102 -3.16731 -0.238417 -0.870004 0.214124 -3.53365 
276 0.532001 4.2966 -15.3436 -3.59188 -4.72042 -3.21647 -0.229818 -0.865752 0.183622 -3.53369 
277 0.837286 6.4477 -16.618 -2.98686 -4.36412 -2.79526 -0.271782 -1.30719 0.284499 -3.53373 
278 2.70186 4.71108 -16.6178 -2.97009 -3.49621 -2.66229 -0.421801 -0.731568 0.17368 -3.53327 
279 0.756786 6.45828 -14.0635 -2.93582 -4.35933 -2.82531 -0.254394 -1.30412 0.246323 -3.5338 
280 4.55544 2.95533 -16.613 -3.66303 -2.8332 -2.65312 -0.446577 -0.0546525 0.822871 -3.53319 
281 2.40013 2.56506 -15.3403 -3.61512 -3.45234 -2.99087 -0.439775 -0.229071 0.324066 -3.52968 
282 2.36687 2.59464 -12.7851 -3.57766 -3.46174 -3.0368 -0.450798 -0.23452 0.312995 -3.52969 
283 2.64275 4.7444 -14.0625 -2.92161 -3.50004 -2.70638 -0.425069 -0.735406 0.149717 -3.53329 
284 4.51787 3.01102 -14.0575 -3.62156 -2.83105 -2.69259 -0.467978 -0.0766235 0.810143 -3.53322 
285 0.477484 4.30342 -12.7889 -3.54941 -4.73011 -3.25102 -0.216237 -0.862124 0.15613 -3.53371 
286 0.422989 4.30943 -10.2348 -3.51266 -4.73614 -3.27764 -0.201508 -0.859614 0.13127 -3.53373 
287 0.67624 6.46768 -11.5096 -2.89705 -4.36036 -2.84682 -0.23536 -1.30131 0.211596 -3.53385 
288 2.58318 4.77683 -11.508 -2.8797 -3.50985 -2.73819 -0.424426 -0.737686 0.130116 -3.5333 
289 0.595667 6.47591 -8.95613 -2.86616 -4.36179 -2.86068 -0.215281 -1.29996 0.179727 -3.53387 
290 4.47949 3.06615 -11.5028 -3.58573 -2.83256 -2.72654 -0.48603 -0.0943072 0.799397 -3.53325 
291 2.33326 2.6237 -10.2307 -3.54286 -3.47164 -3.06687 -0.457883 -0.239064 0.302438 -3.52971 
292 2.29932 2.65224 -7.67675 -3.51031 -3.48298 -3.08195 -0.461051 -0.243661 0.293741 -3.52974 
293 2.52321 4.80835 -8.95408 -2.84651 -3.51951 -2.75715 -0.420506 -0.739013 0.11226 -3.53331 
294 4.44036 3.12072 -8.94878 -3.55037 -2.83849 -2.74765 -0.499512 -0.110805 0.791002 -3.53327 
295 0.368556 4.31464 -7.68117 -3.48401 -4.74231 -3.2945 -0.183666 -0.857047 0.10995 -3.53373 
296 0.314198 4.31911 -5.12775 -3.46186 -4.74663 -3.30052 -0.165535 -0.855373 0.0906362 -3.53374 
297 0.515123 6.48303 -6.40292 -2.84342 -4.36227 -2.86808 -0.193378 -1.29909 0.151853 -3.5339 
298 2.46291 4.83902 -6.40047 -2.81652 -3.52801 -2.76518 -0.4134 -0.739467 0.0964625 -3.53333 
299 0.434612 6.48907 -3.84985 -2.82634 -4.36303 -2.87015 -0.171277 -1.29827 0.124456 -3.53391 
300 4.40055 3.17473 -6.39509 -3.51878 -2.8472 -2.75695 -0.510344 -0.125041 0.783669 -3.53329 
301 2.26512 2.68029 -5.12309 -3.4816 -3.49498 -3.08962 -0.462126 -0.247164 0.286673 -3.52976 
302 2.23066 2.70787 -2.56958 -3.45545 -3.50849 -3.08978 -0.460794 -0.251349 0.280484 -3.52977 
303 2.40228 4.86885 -3.84706 -2.79192 -3.53833 -2.76806 -0.404319 -0.740801 0.0812113 -3.53334 
304 4.36009 3.2282 -3.84164 -3.49164 -2.85864 -2.76093 -0.518926 -0.139007 0.778175 -3.5333 
305 0.259912 4.32285 -2.57441 -3.44453 -4.75007 -3.30079 -0.146707 -0.853917 0.0718236 -3.53375 
306 0.354152 6.49404 -1.2968 -2.8143 -4.36592 -2.8679 -0.148733 -1.29838 0.0980086 -3.53392 
307 2.34136 4.89786 -1.29371 -2.77159 -3.55023 -2.76446 -0.393006 -0.742002 0.066547 -3.53335 
308 4.319 3.28114 -1.28826 -3.46652 -2.8733 -2.75846 -0.525011 -0.152463 0.772834 -3.53331 
309 2.42445 7.08967 -0.0166885 -2.23495 -3.36061 -2.43079 -0.350156 -1.1595 -0.14688 -3.53293 
310 0.422255 8.66843 -0.0192821 -2.27063 -4.05369 -2.50248 -0.144498 -1.69889 0.108576 -3.53365 
311 0.315551 8.67283 2.53356 -2.26534 -4.0589 -2.49496 -0.119439 -1.70005 0.0734654 -3.53365 
312 0.464069 10.8453 1.25791 -1.74254 -3.77428 -2.15638 -0.139632 -2.04867 0.10747 -3.53304 