LAMMPS (15 May 2015)
Processor partition = 2
------- This is Cu ---------
Reading restart file ...
  restart file = 15 May 2015, LAMMPS = 15 May 2015
WARNING: Restart file used different # of processors (../read_restart.cpp:705)
  orthogonal box = (-100 -100 -156.15) to (100 100 156.15)
  1 by 1 by 1 MPI processor grid
  37664 atoms
WARNING: Resetting reneighboring criteria during minimization (../min.cpp:168)
Neighbor list info ...
  1 neighbor list requests
  update every 1 steps, delay 0 steps, check yes
  master list distance cutoff = 6.50679
Setting up minimization ...
Memory usage per processor = 25.009 Mbytes
Step TotEng PotEng KinEng Temp Press sxx syy szz sxy sxz syz 
       0      -129885.351906915297      -129885.351906915297                         0                         0      -105.763823816716993    -0.0943250392161871648     -0.101070784150925921       1.08643955549565407   -0.00224850073996297811    -0.0122210520058671814    0.00100289900739554774 
     100       -129886.66043904399      -129886.807380209095       0.14694116510635763     0.0301831060788663001      -107.555143361725669    -0.0898403723188522796    -0.0927320733798710772       1.08870776581281525    0.00386774275027336727   -0.00501791278013349797     0.0035655888257807803 
     200      -129887.084152802141      -129887.110492885069      0.026340082926138722    0.00541050233615836523      -107.575399932487485    -0.0897601382634471007    -0.0914903240722812067       1.08755644090147818    0.00213769920354489129  -2.06770713372353628e-05    0.00572263651372726442 
     203       -129887.08554053049      -129887.112501674987      0.026961144490091439     0.0055380742596062519      -107.575606502730636    -0.0897524258065220126    -0.0914845937491105959       1.08754473844347777    0.00211294926644956969    2.2619472222942886e-05    0.00573339987576576126 
Loop time of 20.4716 on 1 procs for 203 steps with 37664 atoms

Minimization stats:
  Stopping criterion = force tolerance
  Energy initial, next-to-last, final = 
        -129885.351907     -129887.111837     -129887.112502
  Force two-norm initial, final = 2.38571 0.0720156
  Force max component initial, final = 0.134609 0.00683581
  Final line search alpha, max atom move = 0 0
  Iterations, force evaluations = 203 203

Pair  time (%) = 19.1474 (93.5313)
Neigh time (%) = 0.070735 (0.345527)
Comm  time (%) = 0.000997305 (0.00487164)
Outpt time (%) = 0.00588489 (0.0287465)
Other time (%) = 1.24664 (6.0896)

Nlocal:    37664 ave 37664 max 37664 min
Histogram: 1 0 0 0 0 0 0 0 0 0
Nghost:    0 ave 0 max 0 min
Histogram: 1 0 0 0 0 0 0 0 0 0
Neighs:    1.52298e+06 ave 1.52298e+06 max 1.52298e+06 min
Histogram: 1 0 0 0 0 0 0 0 0 0

Total # of neighbors = 1522979
Ave neighs/atom = 40.4359
Neighbor list builds = 1
Dangerous builds = 0
WARNING: Resetting reneighboring criteria during minimization (../min.cpp:168)
Setting up minimization ...
Memory usage per processor = 25.009 Mbytes
Step TotEng PotEng KinEng Temp Press sxx syy szz sxy sxz syz 
     203      -129887.112501674987      -129887.112501674987                         0                         0      -107.577911792095321    -0.0897474459564000515    -0.0914807210372677454       1.08755530758514474    0.00211314404167381323   1.70173783654755473e-05    0.00573388465316139115 
Loop time of 5.96046e-06 on 1 procs for 0 steps with 37664 atoms

Minimization stats:
  Stopping criterion = force tolerance
  Energy initial, next-to-last, final = 
        -129887.112502     -129887.111837     -129887.112502
  Force two-norm initial, final = 0.0720156 0.0720156
  Force max component initial, final = 0.00683581 0.00683581
  Final line search alpha, max atom move = 0 0
  Iterations, force evaluations = 0 0

Pair  time (%) = 0 (0)
Neigh time (%) = 0 (0)
Comm  time (%) = 0 (0)
Outpt time (%) = 0 (0)
Other time (%) = 5.96046e-06 (100)

Nlocal:    37664 ave 37664 max 37664 min
Histogram: 1 0 0 0 0 0 0 0 0 0
Nghost:    0 ave 0 max 0 min
Histogram: 1 0 0 0 0 0 0 0 0 0
Neighs:    1.52298e+06 ave 1.52298e+06 max 1.52298e+06 min
Histogram: 1 0 0 0 0 0 0 0 0 0

Total # of neighbors = 1522979
Ave neighs/atom = 40.4359
Neighbor list builds = 0
Dangerous builds = 0
