LAMMPS (15 May 2015)
Processor partition = 3
------- This is Cu ---------
Reading restart file ...
  restart file = 15 May 2015, LAMMPS = 15 May 2015
WARNING: Restart file used different # of processors (../read_restart.cpp:705)
  orthogonal box = (-100 -100 -156.15) to (100 100 156.15)
  1 by 1 by 1 MPI processor grid
  37664 atoms
WARNING: Resetting reneighboring criteria during minimization (../min.cpp:168)
Neighbor list info ...
  1 neighbor list requests
  update every 1 steps, delay 0 steps, check yes
  master list distance cutoff = 6.50679
Setting up minimization ...
Memory usage per processor = 25.009 Mbytes
Step TotEng PotEng KinEng Temp Press sxx syy szz sxy sxz syz 
       0      -129884.487021834822      -129884.487021834822                         0                         0      -104.886497067412563    -0.0973464640479008991     -0.103934912967220641          1.08493376801413   -0.00570880535862304268     -0.012910138166466207    0.00840403224210473088 
     100      -129887.355411770579      -129887.480416599486      0.125004828911611937      0.025677175001836635      -107.642327247639614    -0.0895199815386731601    -0.0891299410196004227       1.08551975332339312   0.000386186242347033777    0.00128863117079448418     0.0139746406539657357 
     200      -129887.698567855594      -129887.748169274491     0.0496014188949971471     0.0101886009076241277      -107.520646078107617    -0.0893923213231252595    -0.0885566594279061092       1.08379366662714682   -0.00114507947588826588    0.00531692127770575559      0.015022535571665753 
     203      -129887.698718998348      -129887.750390177549     0.0516711791965700981     0.0106137492633962133      -107.518814940619308     -0.089386414976681039     -0.088554674186367574        1.0837703479912022    -0.0011749799275536947    0.00535561310264910401     0.0150301076774346787 
Loop time of 20.4716 on 1 procs for 203 steps with 37664 atoms

Minimization stats:
  Stopping criterion = force tolerance
  Energy initial, next-to-last, final = 
        -129884.487022     -129887.749653      -129887.75039
  Force two-norm initial, final = 3.12843 0.0999864
  Force max component initial, final = 0.190036 0.0103771
  Final line search alpha, max atom move = 0 0
  Iterations, force evaluations = 203 203

Pair  time (%) = 19.2481 (94.0231)
Neigh time (%) = 0.070435 (0.344062)
Comm  time (%) = 0.00101376 (0.004952)
Outpt time (%) = 0.00591397 (0.0288886)
Other time (%) = 1.14621 (5.59899)

Nlocal:    37664 ave 37664 max 37664 min
Histogram: 1 0 0 0 0 0 0 0 0 0
Nghost:    0 ave 0 max 0 min
Histogram: 1 0 0 0 0 0 0 0 0 0
Neighs:    1.52279e+06 ave 1.52279e+06 max 1.52279e+06 min
Histogram: 1 0 0 0 0 0 0 0 0 0

Total # of neighbors = 1522786
Ave neighs/atom = 40.4308
Neighbor list builds = 1
Dangerous builds = 0
WARNING: Resetting reneighboring criteria during minimization (../min.cpp:168)
Setting up minimization ...
Memory usage per processor = 25.009 Mbytes
Step TotEng PotEng KinEng Temp Press sxx syy szz sxy sxz syz 
     203      -129887.750390177549      -129887.750390177549                         0                         0      -107.523233040151595    -0.0893770848559307801    -0.0885487783349265117       1.08379234381901335   -0.00117453805857356498    0.00534458913204450149     0.0150307993612024664 
Loop time of 5.00679e-06 on 1 procs for 0 steps with 37664 atoms

Minimization stats:
  Stopping criterion = force tolerance
  Energy initial, next-to-last, final = 
         -129887.75039     -129887.749653      -129887.75039
  Force two-norm initial, final = 0.0999864 0.0999864
  Force max component initial, final = 0.0103771 0.0103771
  Final line search alpha, max atom move = 0 0
  Iterations, force evaluations = 0 0

Pair  time (%) = 0 (0)
Neigh time (%) = 0 (0)
Comm  time (%) = 0 (0)
Outpt time (%) = 0 (0)
Other time (%) = 5.00679e-06 (100)

Nlocal:    37664 ave 37664 max 37664 min
Histogram: 1 0 0 0 0 0 0 0 0 0
Nghost:    0 ave 0 max 0 min
Histogram: 1 0 0 0 0 0 0 0 0 0
Neighs:    1.52279e+06 ave 1.52279e+06 max 1.52279e+06 min
Histogram: 1 0 0 0 0 0 0 0 0 0

Total # of neighbors = 1522786
Ave neighs/atom = 40.4308
Neighbor list builds = 0
Dangerous builds = 0
