LAMMPS (15 May 2015)
Processor partition = 4
------- This is Cu ---------
Reading restart file ...
  restart file = 15 May 2015, LAMMPS = 15 May 2015
WARNING: Restart file used different # of processors (../read_restart.cpp:705)
  orthogonal box = (-100 -100 -156.15) to (100 100 156.15)
  1 by 1 by 1 MPI processor grid
  37664 atoms
WARNING: Resetting reneighboring criteria during minimization (../min.cpp:168)
Neighbor list info ...
  1 neighbor list requests
  update every 1 steps, delay 0 steps, check yes
  master list distance cutoff = 6.50679
Setting up minimization ...
Memory usage per processor = 25.009 Mbytes
Step TotEng PotEng KinEng Temp Press sxx syy szz sxy sxz syz 
       0      -129884.647069896804      -129884.647069896804                         0                         0      -104.434751627913215    -0.0996290976774308334     -0.103321869805508976        1.0827974735596706   -0.00854011837994677996    -0.0099868368330798471     0.0180977157689288272 
     100      -129888.296901979309       -129888.39333395705     0.0964319777429343689      0.019808040935997244      -107.364092206218515    -0.0887184152951709798    -0.0866321247819829138       1.07987628398184898   -0.00215000257105102356     0.0076359872395079095     0.0231614924661291688 
     200      -129888.476578409653      -129888.522691359598     0.0461129499522735034    0.00947203636919239332       -107.21426873381121    -0.0888740213765563114    -0.0864062190249347134       1.07854374490148697   -0.00388298868364460705     0.0104144372533764244     0.0238763727091220838 
     203      -129888.475157006586      -129888.523714460927     0.0485574543354874988    0.00997416070620439979      -107.211732386883753    -0.0888738066856126774    -0.0864079714499312868       1.07852391430796191   -0.00391626614010999984     0.0104395879521286591     0.0238827368864180899 
Loop time of 20.4716 on 1 procs for 203 steps with 37664 atoms

Minimization stats:
  Stopping criterion = force tolerance
  Energy initial, next-to-last, final = 
         -129884.64707     -129888.523374     -129888.523714
  Force two-norm initial, final = 3.43629 0.0971057
  Force max component initial, final = 0.215223 0.00955025
  Final line search alpha, max atom move = 0 0
  Iterations, force evaluations = 203 203

Pair  time (%) = 19.3227 (94.3875)
Neigh time (%) = 0.0709689 (0.346669)
Comm  time (%) = 0.0010078 (0.00492288)
Outpt time (%) = 0.00595427 (0.0290854)
Other time (%) = 1.07104 (5.23185)

Nlocal:    37664 ave 37664 max 37664 min
Histogram: 1 0 0 0 0 0 0 0 0 0
Nghost:    0 ave 0 max 0 min
Histogram: 1 0 0 0 0 0 0 0 0 0
Neighs:    1.52274e+06 ave 1.52274e+06 max 1.52274e+06 min
Histogram: 1 0 0 0 0 0 0 0 0 0

Total # of neighbors = 1522737
Ave neighs/atom = 40.4295
Neighbor list builds = 1
Dangerous builds = 0
WARNING: Resetting reneighboring criteria during minimization (../min.cpp:168)
Setting up minimization ...
Memory usage per processor = 25.009 Mbytes
Step TotEng PotEng KinEng Temp Press sxx syy szz sxy sxz syz 
     203      -129888.523714460927      -129888.523714460927                         0                         0      -107.215884250062118    -0.0888644344979586803    -0.0864025779599513072       1.07854412743052919   -0.00391540950441366005     0.0104298205082193288     0.0238831407560167741 
Loop time of 4.05312e-06 on 1 procs for 0 steps with 37664 atoms

Minimization stats:
  Stopping criterion = force tolerance
  Energy initial, next-to-last, final = 
        -129888.523714     -129888.523374     -129888.523714
  Force two-norm initial, final = 0.0971057 0.0971057
  Force max component initial, final = 0.00955025 0.00955025
  Final line search alpha, max atom move = 0 0
  Iterations, force evaluations = 0 0

Pair  time (%) = 0 (0)
Neigh time (%) = 0 (0)
Comm  time (%) = 0 (0)
Outpt time (%) = 0 (0)
Other time (%) = 4.05312e-06 (100)

Nlocal:    37664 ave 37664 max 37664 min
Histogram: 1 0 0 0 0 0 0 0 0 0
Nghost:    0 ave 0 max 0 min
Histogram: 1 0 0 0 0 0 0 0 0 0
Neighs:    1.52274e+06 ave 1.52274e+06 max 1.52274e+06 min
Histogram: 1 0 0 0 0 0 0 0 0 0

Total # of neighbors = 1522737
Ave neighs/atom = 40.4295
Neighbor list builds = 0
Dangerous builds = 0
