LAMMPS (15 May 2015)
Processor partition = 8
------- This is Cu ---------
Reading restart file ...
  restart file = 15 May 2015, LAMMPS = 15 May 2015
WARNING: Restart file used different # of processors (../read_restart.cpp:705)
  orthogonal box = (-100 -100 -156.15) to (100 100 156.15)
  1 by 1 by 1 MPI processor grid
  37664 atoms
WARNING: Resetting reneighboring criteria during minimization (../min.cpp:168)
Neighbor list info ...
  1 neighbor list requests
  update every 1 steps, delay 0 steps, check yes
  master list distance cutoff = 6.50679
Setting up minimization ...
Memory usage per processor = 25.009 Mbytes
Step TotEng PotEng KinEng Temp Press sxx syy szz sxy sxz syz 
       0      -129890.196820281722      -129890.196820281722                         0                         0      -104.183141373614049    -0.0851009132121422485    -0.0909712900780346723       1.05379893218846155   0.000523390773885327879     0.0173064265847721506     0.0403086727348576229 
     100      -129890.197092203278      -129890.197100955906   8.75262915336864149e-06   1.79787286982436774e-06      -104.219662760612891    -0.0849824293072056203    -0.0908598535318221462         1.053876698730837   0.000569630301788284148     0.0173418733136915422     0.0403307288251769577 
     200      -129890.197116964671      -129890.197125437626   8.47294984789449209e-06   1.74042409337646203e-06      -104.241251760971707    -0.0849127701375683303    -0.0907895387662865511       1.05391860875900134   0.000621421743864899296     0.0173803005304262702     0.0403328381055300805 
     203      -129890.197116804731      -129890.197125859384   9.05465524789440397e-06   1.85991188825094992e-06      -104.241581423899035     -0.084911657924434461    -0.0907884761119203965       1.05391921125029153   0.000622415890122810064     0.0173810429356253092     0.0403327910400122433 
Loop time of 20.4716 on 1 procs for 203 steps with 37664 atoms

Minimization stats:
  Stopping criterion = force tolerance
  Energy initial, next-to-last, final = 
         -129890.19682     -129890.197126     -129890.197126
  Force two-norm initial, final = 0.0665461 0.0013294
  Force max component initial, final = 0.00179575 2.4356e-05
  Final line search alpha, max atom move = 0 0
  Iterations, force evaluations = 203 203

Pair  time (%) = 19.1243 (93.4183)
Neigh time (%) = 0.07026 (0.343207)
Comm  time (%) = 0.000935793 (0.00457117)
Outpt time (%) = 0.00593615 (0.0289969)
Other time (%) = 1.27025 (6.20494)

Nlocal:    37664 ave 37664 max 37664 min
Histogram: 1 0 0 0 0 0 0 0 0 0
Nghost:    0 ave 0 max 0 min
Histogram: 1 0 0 0 0 0 0 0 0 0
Neighs:    1.52288e+06 ave 1.52288e+06 max 1.52288e+06 min
Histogram: 1 0 0 0 0 0 0 0 0 0

Total # of neighbors = 1522882
Ave neighs/atom = 40.4334
Neighbor list builds = 1
Dangerous builds = 0
WARNING: Resetting reneighboring criteria during minimization (../min.cpp:168)
Setting up minimization ...
Memory usage per processor = 25.009 Mbytes
Step TotEng PotEng KinEng Temp Press sxx syy szz sxy sxz syz 
     203      -129890.197125859384      -129890.197125859384                         0                         0      -104.241582198109498    -0.0849116545204841311    -0.0907884743956461487       1.05391921265265975   0.000622416223134148079     0.0173810434419453264     0.0403327913993698217 
Loop time of 4.05312e-06 on 1 procs for 0 steps with 37664 atoms

Minimization stats:
  Stopping criterion = force tolerance
  Energy initial, next-to-last, final = 
        -129890.197126     -129890.197126     -129890.197126
  Force two-norm initial, final = 0.0013294 0.0013294
  Force max component initial, final = 2.4356e-05 2.4356e-05
  Final line search alpha, max atom move = 0 0
  Iterations, force evaluations = 0 0

Pair  time (%) = 0 (0)
Neigh time (%) = 0 (0)
Comm  time (%) = 0 (0)
Outpt time (%) = 0 (0)
Other time (%) = 4.05312e-06 (100)

Nlocal:    37664 ave 37664 max 37664 min
Histogram: 1 0 0 0 0 0 0 0 0 0
Nghost:    0 ave 0 max 0 min
Histogram: 1 0 0 0 0 0 0 0 0 0
Neighs:    1.52288e+06 ave 1.52288e+06 max 1.52288e+06 min
Histogram: 1 0 0 0 0 0 0 0 0 0

Total # of neighbors = 1522882
Ave neighs/atom = 40.4334
Neighbor list builds = 0
Dangerous builds = 0
