LAMMPS (15 May 2015)
Processor partition = 5
------- This is Cu ---------
Reading restart file ...
  restart file = 15 May 2015, LAMMPS = 15 May 2015
WARNING: Restart file used different # of processors (../read_restart.cpp:705)
  orthogonal box = (-100 -100 -156.15) to (100 100 156.15)
  1 by 1 by 1 MPI processor grid
  37664 atoms
WARNING: Resetting reneighboring criteria during minimization (../min.cpp:168)
Neighbor list info ...
  1 neighbor list requests
  update every 1 steps, delay 0 steps, check yes
  master list distance cutoff = 6.50679
Setting up minimization ...
Memory usage per processor = 25.009 Mbytes
Step TotEng PotEng KinEng Temp Press sxx syy szz sxy sxz syz 
       0      -129885.867323343293      -129885.867323343293                         0                         0      -104.394099867584103    -0.0999230470483762623    -0.0997452526750303853       1.07917232105502947    -0.0094725159319043583   -0.00442064332163191569     0.0276039616696542277 
     100      -129889.130614432666       -129889.19982972632     0.0692152936599867985     0.0142174764253919332      -106.793332170037644    -0.0877453777970192278    -0.0856853084654867481       1.07314786581660782   -0.00343083674275628707     0.0126706902708057581     0.0303756902137693498 
     200      -129889.227779774897      -129889.258809052175     0.0310292772797814871    0.00637370723859653678      -106.666180001297008    -0.0881842008416651862    -0.0854125551108603775       1.07224269830193131    -0.0054149455879683164     0.0145288086026234119     0.0314848315103664483 
     203      -129889.226404543602      -129889.259184024922      0.032779481323305118    0.00673321571443513504      -106.664171029329339    -0.0881903802903657302    -0.0854099493979163932       1.07222934676198012   -0.00545535598754621522     0.0145460828691518444      0.031503649305866771 
Loop time of 20.4716 on 1 procs for 203 steps with 37664 atoms

Minimization stats:
  Stopping criterion = force tolerance
  Energy initial, next-to-last, final = 
        -129885.867323     -129889.259059     -129889.259184
  Force two-norm initial, final = 3.24579 0.0798301
  Force max component initial, final = 0.202011 0.00569545
  Final line search alpha, max atom move = 0 0
  Iterations, force evaluations = 203 203

Pair  time (%) = 19.1897 (93.7382)
Neigh time (%) = 0.071187 (0.347735)
Comm  time (%) = 0.000963211 (0.0047051)
Outpt time (%) = 0.0059309 (0.0289713)
Other time (%) = 1.20381 (5.88039)

Nlocal:    37664 ave 37664 max 37664 min
Histogram: 1 0 0 0 0 0 0 0 0 0
Nghost:    0 ave 0 max 0 min
Histogram: 1 0 0 0 0 0 0 0 0 0
Neighs:    1.52276e+06 ave 1.52276e+06 max 1.52276e+06 min
Histogram: 1 0 0 0 0 0 0 0 0 0

Total # of neighbors = 1522759
Ave neighs/atom = 40.4301
Neighbor list builds = 1
Dangerous builds = 0
WARNING: Resetting reneighboring criteria during minimization (../min.cpp:168)
Setting up minimization ...
Memory usage per processor = 25.009 Mbytes
Step TotEng PotEng KinEng Temp Press sxx syy szz sxy sxz syz 
     203      -129889.259184024922      -129889.259184024922                         0                         0      -106.666973810557764     -0.088182226905560615    -0.0854061514899372154       1.07224100846421466   -0.00545397288895251107     0.0145406373352709763     0.0315039111975187816 
Loop time of 5.00679e-06 on 1 procs for 0 steps with 37664 atoms

Minimization stats:
  Stopping criterion = force tolerance
  Energy initial, next-to-last, final = 
        -129889.259184     -129889.259059     -129889.259184
  Force two-norm initial, final = 0.0798301 0.0798301
  Force max component initial, final = 0.00569545 0.00569545
  Final line search alpha, max atom move = 0 0
  Iterations, force evaluations = 0 0

Pair  time (%) = 0 (0)
Neigh time (%) = 0 (0)
Comm  time (%) = 0 (0)
Outpt time (%) = 0 (0)
Other time (%) = 5.00679e-06 (100)

Nlocal:    37664 ave 37664 max 37664 min
Histogram: 1 0 0 0 0 0 0 0 0 0
Nghost:    0 ave 0 max 0 min
Histogram: 1 0 0 0 0 0 0 0 0 0
Neighs:    1.52276e+06 ave 1.52276e+06 max 1.52276e+06 min
Histogram: 1 0 0 0 0 0 0 0 0 0

Total # of neighbors = 1522759
Ave neighs/atom = 40.4301
Neighbor list builds = 0
Dangerous builds = 0
