LAMMPS (15 May 2015)
Processor partition = 1
------- This is Cu ---------
Reading restart file ...
  restart file = 15 May 2015, LAMMPS = 15 May 2015
WARNING: Restart file used different # of processors (../read_restart.cpp:705)
  orthogonal box = (-100 -100 -156.15) to (100 100 156.15)
  1 by 1 by 1 MPI processor grid
  37664 atoms
WARNING: Resetting reneighboring criteria during minimization (../min.cpp:168)
Neighbor list info ...
  1 neighbor list requests
  update every 1 steps, delay 0 steps, check yes
  master list distance cutoff = 6.50679
Setting up minimization ...
Memory usage per processor = 25.009 Mbytes
Step TotEng PotEng KinEng Temp Press sxx syy szz sxy sxz syz 
       0      -129886.617658140516      -129886.617658140516                         0                         0      -106.960080557187453    -0.0916269009239585874    -0.0957233652753189806       1.08847227492701459   0.000144962966275251543   -0.00784855316381856405   -0.00186491332322614631 
     100      -129887.024896059374      -129887.046597193781     0.0217011344088569973    0.00445761840407461404       -107.40078600753904    -0.0899455639129185941     -0.094285634429359777       1.08906608180428899    0.00523586759756811213   -0.00653125068652505181   -0.00325413356634967742 
     200       -129887.01560026368      -129887.028600460035     0.0130001963576884608    0.00267036337588713547      -107.343457572846987    -0.0897867840982120718    -0.0947465901066242983       1.08888527453935247    0.00568167183658820595   -0.00455197471741311272   -0.00327914733104617013 
     203      -129887.015242330832      -129887.029007156583     0.0137648257444426686    0.00282742548897652046      -107.342116442996527    -0.0897781513894565231     -0.094762639249084693       1.08888139216308177    0.00569183487246716861   -0.00452652506082653217   -0.00329523698870772463 
Loop time of 20.4716 on 1 procs for 203 steps with 37664 atoms

Minimization stats:
  Stopping criterion = force tolerance
  Energy initial, next-to-last, final = 
        -129886.617658     -129887.028866     -129887.029007
  Force two-norm initial, final = 1.29477 0.0517512
  Force max component initial, final = 0.064347 0.00339848
  Final line search alpha, max atom move = 0 0
  Iterations, force evaluations = 203 203

Pair  time (%) = 19.1702 (93.6427)
Neigh time (%) = 0.0716441 (0.349967)
Comm  time (%) = 0.000962973 (0.00470393)
Outpt time (%) = 0.00590587 (0.028849)
Other time (%) = 1.22293 (5.97378)

Nlocal:    37664 ave 37664 max 37664 min
Histogram: 1 0 0 0 0 0 0 0 0 0
Nghost:    0 ave 0 max 0 min
Histogram: 1 0 0 0 0 0 0 0 0 0
Neighs:    1.52314e+06 ave 1.52314e+06 max 1.52314e+06 min
Histogram: 1 0 0 0 0 0 0 0 0 0

Total # of neighbors = 1523145
Ave neighs/atom = 40.4403
Neighbor list builds = 1
Dangerous builds = 0
WARNING: Resetting reneighboring criteria during minimization (../min.cpp:168)
Setting up minimization ...
Memory usage per processor = 25.009 Mbytes
Step TotEng PotEng KinEng Temp Press sxx syy szz sxy sxz syz 
     203      -129887.029007156583      -129887.029007156583                         0                         0      -107.343293392528722    -0.0897742663361029425    -0.0947603109808036748       1.08888509445782011     0.0056924359549260636   -0.00452796997903018566   -0.00329449784490329833 
Loop time of 5.00679e-06 on 1 procs for 0 steps with 37664 atoms

Minimization stats:
  Stopping criterion = force tolerance
  Energy initial, next-to-last, final = 
        -129887.029007     -129887.028866     -129887.029007
  Force two-norm initial, final = 0.211597 0.211597
  Force max component initial, final = 0.027487 0.027487
  Final line search alpha, max atom move = 0 0
  Iterations, force evaluations = 0 0

Pair  time (%) = 0 (0)
Neigh time (%) = 0 (0)
Comm  time (%) = 0 (0)
Outpt time (%) = 0 (0)
Other time (%) = 5.00679e-06 (100)

Nlocal:    37664 ave 37664 max 37664 min
Histogram: 1 0 0 0 0 0 0 0 0 0
Nghost:    0 ave 0 max 0 min
Histogram: 1 0 0 0 0 0 0 0 0 0
Neighs:    1.52314e+06 ave 1.52314e+06 max 1.52314e+06 min
Histogram: 1 0 0 0 0 0 0 0 0 0

Total # of neighbors = 1523145
Ave neighs/atom = 40.4403
Neighbor list builds = 0
Dangerous builds = 0
