LAMMPS (15 May 2015)
Processor partition = 6
------- This is Cu ---------
Reading restart file ...
  restart file = 15 May 2015, LAMMPS = 15 May 2015
WARNING: Restart file used different # of processors (../read_restart.cpp:705)
  orthogonal box = (-100 -100 -156.15) to (100 100 156.15)
  1 by 1 by 1 MPI processor grid
  37664 atoms
WARNING: Resetting reneighboring criteria during minimization (../min.cpp:168)
Neighbor list info ...
  1 neighbor list requests
  update every 1 steps, delay 0 steps, check yes
  master list distance cutoff = 6.50679
Setting up minimization ...
Memory usage per processor = 25.009 Mbytes
Step TotEng PotEng KinEng Temp Press sxx syy szz sxy sxz syz 
       0      -129887.700238338162      -129887.700238338162                         0                         0      -104.594560311840567    -0.0972575702454707564    -0.0949072126160156737       1.07335765219377044   -0.00800258971963698114    0.00248758754769493702     0.0352181384026423461 
     100      -129889.731416694893      -129889.772920632196     0.0415039373077586773    0.00852530154871145723      -106.027969019475393    -0.0867525559081353814    -0.0862432888650526697       1.06626495906734342    -0.0033224978573256625     0.0159093221678988685     0.0354782395491724939 
     200      -129889.788847156902       -129889.80903598819     0.0201888312921498121    0.00414697703028440307      -105.933319225348001    -0.0872103742294216139     -0.085917883611993498       1.06559996237143562   -0.00508058938753038619     0.0170232027850693683     0.0369436890689842437 
     203      -129889.788060211562      -129889.809436131662     0.0213759201050921777    0.00439081630799899574      -105.932087955566004    -0.0872181312200182857    -0.0859093565350303179       1.06558881902904989   -0.00512012566130760384     0.0170356699664390154     0.0369764936496916885 
Loop time of 20.4716 on 1 procs for 203 steps with 37664 atoms

Minimization stats:
  Stopping criterion = force tolerance
  Energy initial, next-to-last, final = 
        -129887.700238     -129889.809302     -129889.809436
  Force two-norm initial, final = 2.57078 0.064491
  Force max component initial, final = 0.152679 0.00157215
  Final line search alpha, max atom move = 0 0
  Iterations, force evaluations = 203 203

Pair  time (%) = 19.2432 (93.9993)
Neigh time (%) = 0.070426 (0.344017)
Comm  time (%) = 0.000975847 (0.00476683)
Outpt time (%) = 0.00588918 (0.0287675)
Other time (%) = 1.15114 (5.62312)

Nlocal:    37664 ave 37664 max 37664 min
Histogram: 1 0 0 0 0 0 0 0 0 0
Nghost:    0 ave 0 max 0 min
Histogram: 1 0 0 0 0 0 0 0 0 0
Neighs:    1.52274e+06 ave 1.52274e+06 max 1.52274e+06 min
Histogram: 1 0 0 0 0 0 0 0 0 0

Total # of neighbors = 1522741
Ave neighs/atom = 40.4296
Neighbor list builds = 1
Dangerous builds = 0
WARNING: Resetting reneighboring criteria during minimization (../min.cpp:168)
Setting up minimization ...
Memory usage per processor = 25.009 Mbytes
Step TotEng PotEng KinEng Temp Press sxx syy szz sxy sxz syz 
     203      -129889.809436131662      -129889.809436131662                         0                         0      -105.933915685145379    -0.0872114126908360293    -0.0859069859061422081       1.06559512820783131   -0.00511870914151856243     0.0170330189409365063     0.0369767956686251759 
Loop time of 4.05312e-06 on 1 procs for 0 steps with 37664 atoms

Minimization stats:
  Stopping criterion = force tolerance
  Energy initial, next-to-last, final = 
        -129889.809436     -129889.809302     -129889.809436
  Force two-norm initial, final = 0.064491 0.064491
  Force max component initial, final = 0.00157215 0.00157215
  Final line search alpha, max atom move = 0 0
  Iterations, force evaluations = 0 0

Pair  time (%) = 0 (0)
Neigh time (%) = 0 (0)
Comm  time (%) = 0 (0)
Outpt time (%) = 0 (0)
Other time (%) = 4.05312e-06 (100)

Nlocal:    37664 ave 37664 max 37664 min
Histogram: 1 0 0 0 0 0 0 0 0 0
Nghost:    0 ave 0 max 0 min
Histogram: 1 0 0 0 0 0 0 0 0 0
Neighs:    1.52274e+06 ave 1.52274e+06 max 1.52274e+06 min
Histogram: 1 0 0 0 0 0 0 0 0 0

Total # of neighbors = 1522741
Ave neighs/atom = 40.4296
Neighbor list builds = 0
Dangerous builds = 0
