LAMMPS (15 May 2015)
Processor partition = 3
#log         log.neb.lammps
#--------------------------------------------------------------------------------------------------------------------------
# create FCC structure   - copper
# box axis ox: [ 0 -1  1]
# box axis oy: [ 1  1  1]
# box axis oz: [-2  1  1]
#       |y1 [-1 -1  1]
#       |
#       |
#       |____________ x1 [ 1  1  2]
#      /o
#     /
#    /
#   /z1 [ 1 -1 0]

variable    lattice_type index fcc
variable    lattice_atom equal 4
#variable    lattice_cons equal 3.615
if   "${metal} == Al99" then "variable  lattice_cons equal 4.05 " elif "${metal} == Al03"      "variable  lattice_cons equal 4.05 " elif "${metal} == Ni"        "variable  lattice_cons equal 3.52 " elif "${metal} == Cu"        "variable  lattice_cons equal 3.615" elif "${metal} == Ag"        "variable  lattice_cons equal 4.09 " elif "${metal} == Au"        "variable  lattice_cons equal 4.08 " else "print '------- This is nothing ----'"   "quit"
variable  lattice_cons equal 3.615
print '------- This is ${metal} ---------'
------- This is Cu ---------

variable    cell_volume  equal ${lattice_cons}^3
variable    cell_volume  equal 3.615^3
variable    atom_volume  equal ${cell_volume}/${lattice_atom}*10000 # 10000 是为了使得最终的应力结果以GPa为单位而引入的参数
variable    atom_volume  equal 47.241633375/${lattice_atom}*10000 
variable    atom_volume  equal 47.241633375/4*10000 
                                                                    # metal units 中, 应力单位为bar

variable        timestep    equal 0.002
variable        u  uloop 480

atom_modify     map array sort 0 0.0    # build mapping and turn off sorting

variable        nStep   index 5064
read_restart    ./res/neb.${nStep}.$u.restart
read_restart    ./res/neb.204.$u.restart
read_restart    ./res/neb.204.4.restart
  orthogonal box = (-100 -100 -156.15) to (100 100 156.15)
  1 by 1 by 1 MPI processor grid
  37664 atoms
reset_timestep  0
# -------- potentials & neighbor -------
pair_style      eam/alloy
#pair_coeff      * * Cu_mishin1.eam.alloy Cu
if   "${metal} == Al99" then "pair_coeff  * * ../potentials/Al99.eam.alloy Al" elif "${metal} == Al03"      "pair_coeff  * * ../potentials/Al03.eam.alloy Al" elif "${metal} == Ni"        "pair_coeff  * * ../potentials/Ni99.eam.alloy Ni" elif "${metal} == Cu"        "pair_coeff  * * ../potentials/Cu_mishin1.eam.alloy Cu" elif "${metal} == Ag"        "pair_coeff  * * ../potentials/Ag.eam.alloy Ag" elif "${metal} == Au"        "pair_coeff  * * ../potentials/Au-Grochola-JCP05.eam.alloy Au" else "quit"
pair_coeff  * * ../potentials/Cu_mishin1.eam.alloy Cu

neighbor        1.0 bin
neigh_modify    every 1 delay 5 check yes
# --------------------------------------

# ----------------------- 定义统计量 ---------------------------------
compute         atomStress all stress/atom NULL
compute         atomPE all pe/atom
#---------- 每个原子的应力 -------------
variable        peratom_sxx atom c_atomStress[1]/${atom_volume}
variable        peratom_sxx atom c_atomStress[1]/118104.0834375
variable        peratom_syy atom c_atomStress[2]/${atom_volume}
variable        peratom_syy atom c_atomStress[2]/118104.0834375
variable        peratom_szz atom c_atomStress[3]/${atom_volume}
variable        peratom_szz atom c_atomStress[3]/118104.0834375
variable        peratom_sxy atom c_atomStress[4]/${atom_volume}
variable        peratom_sxy atom c_atomStress[4]/118104.0834375
variable        peratom_sxz atom c_atomStress[5]/${atom_volume}
variable        peratom_sxz atom c_atomStress[5]/118104.0834375
variable        peratom_syz atom c_atomStress[6]/${atom_volume}
variable        peratom_syz atom c_atomStress[6]/118104.0834375
#----------- all的体积 --------------
variable        p_natom equal count(all)
variable        entityVol equal ${atom_volume}*${p_natom}
variable        entityVol equal 118104.0834375*${p_natom}
variable        entityVol equal 118104.0834375*37664
#----------- all的应力 --------------
compute         sxx0 all  reduce sum c_atomStress[1]
compute         syy0 all  reduce sum c_atomStress[2]
compute         szz0 all  reduce sum c_atomStress[3]
compute         sxy0 all  reduce sum c_atomStress[4]
compute         sxz0 all  reduce sum c_atomStress[5]
compute         syz0 all  reduce sum c_atomStress[6]
variable        sxx equal c_sxx0/${entityVol}
variable        sxx equal c_sxx0/4448272198.59
variable        syy equal c_syy0/${entityVol}
variable        syy equal c_syy0/4448272198.59
variable        szz equal c_szz0/${entityVol}
variable        szz equal c_szz0/4448272198.59
variable        sxy equal c_sxy0/${entityVol}
variable        sxy equal c_sxy0/4448272198.59
variable        sxz equal c_sxz0/${entityVol}
variable        sxz equal c_sxz0/4448272198.59
variable        syz equal c_syz0/${entityVol}
variable        syz equal c_syz0/4448272198.59
# --------------------------------------------------------------------

thermo          100
thermo_style    custom step etotal pe ke temp press v_sxx v_syy v_szz v_sxy v_sxz v_syz
thermo_modify   format float %25.18g

reset_timestep  0
timestep        ${timestep}
timestep        0.002

dump            1 all custom 5000 neb.*.$u.lammpstrj id x y z v_peratom_sxx v_peratom_syy v_peratom_szz v_peratom_sxy v_peratom_sxz v_peratom_syz c_atomPE
dump            1 all custom 5000 neb.*.4.lammpstrj id x y z v_peratom_sxx v_peratom_syy v_peratom_szz v_peratom_sxy v_peratom_sxz v_peratom_syz c_atomPE
dump_modify     1 sort id
restart         5000 neb.*.$u.restart
restart         5000 neb.*.4.restart

fix             1 boundary setforce 0 0 0
variable        kspring     index 1.0
fix             2 mobile neb ${kspring}
fix             2 mobile neb 1.0

min_style       quickmin
variable        etol    index 0.0
variable        ftol    index 0.01
variable        nudgeStep index 400000
variable        climbStep index 400000
neb             ${etol} ${ftol} ${nudgeStep} ${climbStep} 100 none
neb             0.0 ${ftol} ${nudgeStep} ${climbStep} 100 none
neb             0.0 0.031 ${nudgeStep} ${climbStep} 100 none
neb             0.0 0.031 400000 ${climbStep} 100 none
neb             0.0 0.031 400000 0 100 none
WARNING: Resetting reneighboring criteria during minimization (../min.cpp:168)
Neighbor list info ...
  1 neighbor list requests
  update every 1 steps, delay 0 steps, check yes
  master list distance cutoff = 6.50679
Memory usage per processor = 25.009 Mbytes
Step TotEng PotEng KinEng Temp Press sxx syy szz sxy sxz syz 
       0      -129887.119578710845      -129887.119578710845                         0                         0      -107.506585041238566    -0.0899014733484351652    -0.0937086451529795667       1.08933652347859633    0.00436404361414211798   -0.00355626913474351184   -0.00270684755035780584 
     100      -129887.156432379066      -129887.182607517956     0.0261751388883795164    0.00537662126964334828      -107.418801641882553     -0.089771267645822897    -0.0943446816468463539       1.08910279266361076    0.00507558475860007789   -0.00316574633889017991   -0.00361421689641862505 
     200      -129887.184423274783      -129887.194704992988     0.0102817182071277616    0.00211196223396027194      -107.501273412302425    -0.0893867258397639253    -0.0942908550451326405       1.08935923620716357    0.00467380639255455047   -0.00235521591433617179    -0.0037766419808144833 
     212      -129887.181632783511      -129887.194297213195     0.0126644296809017756    0.00260139372251692088      -107.519657468987177    -0.0893420371122883028    -0.0942303226572685504       1.08940889793519169    0.00455867713474616531   -0.00226743827055142858   -0.00375210536399609362 
Loop time of 21.3304 on 1 procs for 212 steps with 37664 atoms

Minimization stats:
  Stopping criterion = force tolerance
  Energy initial, next-to-last, final = 
        -129887.119579     -129887.194342     -129887.194297
  Force two-norm initial, final = 0.186821 0.0234913
  Force max component initial, final = 0.0261247 0.00108909
  Final line search alpha, max atom move = 0 0
  Iterations, force evaluations = 212 212

Pair  time (%) = 20.0888 (94.1793)
Neigh time (%) = 0.071645 (0.335883)
Comm  time (%) = 0.000831366 (0.00389757)
Outpt time (%) = 0.00451517 (0.0211678)
Other time (%) = 1.16458 (5.45975)

Nlocal:    37664 ave 37664 max 37664 min
Histogram: 1 0 0 0 0 0 0 0 0 0
Nghost:    0 ave 0 max 0 min
Histogram: 1 0 0 0 0 0 0 0 0 0
Neighs:    1.52305e+06 ave 1.52305e+06 max 1.52305e+06 min
Histogram: 1 0 0 0 0 0 0 0 0 0

Total # of neighbors = 1523054
Ave neighs/atom = 40.4379
Neighbor list builds = 1
Dangerous builds = 0
WARNING: Resetting reneighboring criteria during minimization (../min.cpp:168)
Memory usage per processor = 25.009 Mbytes
Step TotEng PotEng KinEng Temp Press sxx syy szz sxy sxz syz 
     212      -129887.194297213195      -129887.194297213195                         0                         0       -107.52074032988817    -0.0893401392431969338    -0.0942264681104778429       1.08941226845545747    0.00455884863181803875   -0.00226879358421745031   -0.00375158872317340542 
Loop time of 3.8147e-06 on 1 procs for 0 steps with 37664 atoms

Minimization stats:
  Stopping criterion = force tolerance
  Energy initial, next-to-last, final = 
        -129887.194297     -129887.194342     -129887.194297
  Force two-norm initial, final = 0.0234913 0.0234913
  Force max component initial, final = 0.00108909 0.00108909
  Final line search alpha, max atom move = 0 0
  Iterations, force evaluations = 0 0

Pair  time (%) = 0 (0)
Neigh time (%) = 0 (0)
Comm  time (%) = 0 (0)
Outpt time (%) = 0 (0)
Other time (%) = 3.8147e-06 (100)

Nlocal:    37664 ave 37664 max 37664 min
Histogram: 1 0 0 0 0 0 0 0 0 0
Nghost:    0 ave 0 max 0 min
Histogram: 1 0 0 0 0 0 0 0 0 0
Neighs:    1.52305e+06 ave 1.52305e+06 max 1.52305e+06 min
Histogram: 1 0 0 0 0 0 0 0 0 0

Total # of neighbors = 1523054
Ave neighs/atom = 40.4379
Neighbor list builds = 0
Dangerous builds = 0

