LAMMPS (15 May 2015)
Running on 9 partitions of processors
Step MaxReplicaForce MaxAtomForce GradV0 GradV1 GradVc EBF EBR RDT RD1 PE1 RD2 PE2 ... RDN PEN
0  4.8210324712428e-01  6.1100691219421e-02  1.5520233453118e-03  2.1579243684963e-01  4.8429034269117e-01  4.2249167153204e-01  2.5822504966345e-01  6.0591904389309e+00  0.0000000000000e+00 -1.2988727676830e+05  1.2491867388341e-01 -1.2988725523375e+05  2.4983734776682e-01 -1.2988719875679e+05  3.7475602165023e-01 -1.2988711957871e+05  4.9967469553363e-01 -1.2988702900716e+05  6.2475602165023e-01 -1.2988688924732e+05  7.4983734776682e-01 -1.2988685427663e+05  8.7491867388341e-01 -1.2988695066228e+05  1.0000000000000e+00 -1.2988711250167e+05 
100  8.1229336405664e-02  8.9658086133402e-03  1.4368890441638e-03  1.8316430295848e-01  9.5025586035219e-02  3.3044673764380e-01  1.9219226369751e-01  6.3829969954224e+00  0.0000000000000e+00 -1.2988727677947e+05  1.2457973637512e-01 -1.2988726974940e+05  2.5021578001686e-01 -1.2988724603916e+05  3.7610452456052e-01 -1.2988718260752e+05  4.9988275412774e-01 -1.2988704087158e+05  6.2394311584226e-01 -1.2988694633273e+05  7.4815994804740e-01 -1.2988694847984e+05  8.7385689657099e-01 -1.2988702089788e+05  1.0000000000000e+00 -1.2988713852500e+05 
200  3.4245325975192e-02  2.4947953935118e-03  1.2762481404354e-03  1.5371365311439e-01  4.7048133941967e-02  3.0502943863394e-01  1.9563675258541e-01  6.7066424763423e+00  0.0000000000000e+00 -1.2988727679989e+05  1.2385494217530e-01 -1.2988727251685e+05  2.4774010256930e-01 -1.2988725763292e+05  3.7110529988386e-01 -1.2988719470499e+05  4.9519948647330e-01 -1.2988704983371e+05  6.2030338020050e-01 -1.2988697177046e+05  7.4614843394423e-01 -1.2988698425127e+05  8.7287121526756e-01 -1.2988705650790e+05  1.0000000000000e+00 -1.2988716740721e+05 
212  3.0770287961200e-02  2.1049904268033e-03  1.2577082324475e-03  1.5170761493117e-01  4.3424939510293e-02  3.0365028603410e-01  1.9623429684725e-01  6.7227503995101e+00  0.0000000000000e+00 -1.2988727680288e+05  1.2381868878642e-01 -1.2988727272682e+05  2.4764587768503e-01 -1.2988725840744e+05  3.7102670258641e-01 -1.2988719429721e+05  4.9519338600948e-01 -1.2988704937964e+05  6.2034304889871e-01 -1.2988697315259e+05  7.4622953810663e-01 -1.2988698658758e+05  8.7292298249712e-01 -1.2988705893459e+05  1.0000000000000e+00 -1.2988716938689e+05 
Climbing replica = 6
Step MaxReplicaForce MaxAtomForce GradV0 GradV1 GradVc EBF EBR RDT RD1 PE1 RD2 PE2 ... RDN PEN
212  4.3424939510292e-02  5.4162084529563e-03  1.2577082324475e-03  1.5170761493117e-01  4.3424939510293e-02  3.0365028603410e-01  1.9623429684725e-01  6.7227503995101e+00  0.0000000000000e+00 -1.2988727680288e+05  1.2381868878642e-01 -1.2988727272682e+05  2.4764587768503e-01 -1.2988725840744e+05  3.7102670258641e-01 -1.2988719429721e+05  4.9519338600948e-01 -1.2988704937964e+05  6.2034304889871e-01 -1.2988697315259e+05  7.4622953810663e-01 -1.2988698658758e+05  8.7292298249712e-01 -1.2988705893459e+05  1.0000000000000e+00 -1.2988716938689e+05 
