LAMMPS (15 May 2015)
Processor partition = 4
#log         log.neb.lammps
#--------------------------------------------------------------------------------------------------------------------------
# create FCC structure   - copper
# box axis ox: [ 0 -1  1]
# box axis oy: [ 1  1  1]
# box axis oz: [-2  1  1]
#       |y1 [-1 -1  1]
#       |
#       |
#       |____________ x1 [ 1  1  2]
#      /o
#     /
#    /
#   /z1 [ 1 -1 0]

variable    lattice_type index fcc
variable    lattice_atom equal 4
#variable    lattice_cons equal 3.615
if   "${metal} == Al99" then "variable  lattice_cons equal 4.05 " elif "${metal} == Al03"      "variable  lattice_cons equal 4.05 " elif "${metal} == Ni"        "variable  lattice_cons equal 3.52 " elif "${metal} == Cu"        "variable  lattice_cons equal 3.615" elif "${metal} == Ag"        "variable  lattice_cons equal 4.09 " elif "${metal} == Au"        "variable  lattice_cons equal 4.08 " else "print '------- This is nothing ----'"   "quit"
variable  lattice_cons equal 3.615
print '------- This is ${metal} ---------'
------- This is Cu ---------

variable    cell_volume  equal ${lattice_cons}^3
variable    cell_volume  equal 3.615^3
variable    atom_volume  equal ${cell_volume}/${lattice_atom}*10000 # 10000 是为了使得最终的应力结果以GPa为单位而引入的参数
variable    atom_volume  equal 47.241633375/${lattice_atom}*10000 
variable    atom_volume  equal 47.241633375/4*10000 
                                                                    # metal units 中, 应力单位为bar

variable        timestep    equal 0.002
variable        u  uloop 480

atom_modify     map array sort 0 0.0    # build mapping and turn off sorting

variable        nStep   index 5064
read_restart    ./res/neb.${nStep}.$u.restart
read_restart    ./res/neb.204.$u.restart
read_restart    ./res/neb.204.5.restart
  orthogonal box = (-100 -100 -156.15) to (100 100 156.15)
  1 by 1 by 1 MPI processor grid
  37664 atoms
reset_timestep  0
# -------- potentials & neighbor -------
pair_style      eam/alloy
#pair_coeff      * * Cu_mishin1.eam.alloy Cu
if   "${metal} == Al99" then "pair_coeff  * * ../potentials/Al99.eam.alloy Al" elif "${metal} == Al03"      "pair_coeff  * * ../potentials/Al03.eam.alloy Al" elif "${metal} == Ni"        "pair_coeff  * * ../potentials/Ni99.eam.alloy Ni" elif "${metal} == Cu"        "pair_coeff  * * ../potentials/Cu_mishin1.eam.alloy Cu" elif "${metal} == Ag"        "pair_coeff  * * ../potentials/Ag.eam.alloy Ag" elif "${metal} == Au"        "pair_coeff  * * ../potentials/Au-Grochola-JCP05.eam.alloy Au" else "quit"
pair_coeff  * * ../potentials/Cu_mishin1.eam.alloy Cu

neighbor        1.0 bin
neigh_modify    every 1 delay 5 check yes
# --------------------------------------

# ----------------------- 定义统计量 ---------------------------------
compute         atomStress all stress/atom NULL
compute         atomPE all pe/atom
#---------- 每个原子的应力 -------------
variable        peratom_sxx atom c_atomStress[1]/${atom_volume}
variable        peratom_sxx atom c_atomStress[1]/118104.0834375
variable        peratom_syy atom c_atomStress[2]/${atom_volume}
variable        peratom_syy atom c_atomStress[2]/118104.0834375
variable        peratom_szz atom c_atomStress[3]/${atom_volume}
variable        peratom_szz atom c_atomStress[3]/118104.0834375
variable        peratom_sxy atom c_atomStress[4]/${atom_volume}
variable        peratom_sxy atom c_atomStress[4]/118104.0834375
variable        peratom_sxz atom c_atomStress[5]/${atom_volume}
variable        peratom_sxz atom c_atomStress[5]/118104.0834375
variable        peratom_syz atom c_atomStress[6]/${atom_volume}
variable        peratom_syz atom c_atomStress[6]/118104.0834375
#----------- all的体积 --------------
variable        p_natom equal count(all)
variable        entityVol equal ${atom_volume}*${p_natom}
variable        entityVol equal 118104.0834375*${p_natom}
variable        entityVol equal 118104.0834375*37664
#----------- all的应力 --------------
compute         sxx0 all  reduce sum c_atomStress[1]
compute         syy0 all  reduce sum c_atomStress[2]
compute         szz0 all  reduce sum c_atomStress[3]
compute         sxy0 all  reduce sum c_atomStress[4]
compute         sxz0 all  reduce sum c_atomStress[5]
compute         syz0 all  reduce sum c_atomStress[6]
variable        sxx equal c_sxx0/${entityVol}
variable        sxx equal c_sxx0/4448272198.59
variable        syy equal c_syy0/${entityVol}
variable        syy equal c_syy0/4448272198.59
variable        szz equal c_szz0/${entityVol}
variable        szz equal c_szz0/4448272198.59
variable        sxy equal c_sxy0/${entityVol}
variable        sxy equal c_sxy0/4448272198.59
variable        sxz equal c_sxz0/${entityVol}
variable        sxz equal c_sxz0/4448272198.59
variable        syz equal c_syz0/${entityVol}
variable        syz equal c_syz0/4448272198.59
# --------------------------------------------------------------------

thermo          100
thermo_style    custom step etotal pe ke temp press v_sxx v_syy v_szz v_sxy v_sxz v_syz
thermo_modify   format float %25.18g

reset_timestep  0
timestep        ${timestep}
timestep        0.002

dump            1 all custom 5000 neb.*.$u.lammpstrj id x y z v_peratom_sxx v_peratom_syy v_peratom_szz v_peratom_sxy v_peratom_sxz v_peratom_syz c_atomPE
dump            1 all custom 5000 neb.*.5.lammpstrj id x y z v_peratom_sxx v_peratom_syy v_peratom_szz v_peratom_sxy v_peratom_sxz v_peratom_syz c_atomPE
dump_modify     1 sort id
restart         5000 neb.*.$u.restart
restart         5000 neb.*.5.restart

fix             1 boundary setforce 0 0 0
variable        kspring     index 1.0
fix             2 mobile neb ${kspring}
fix             2 mobile neb 1.0

min_style       quickmin
variable        etol    index 0.0
variable        ftol    index 0.01
variable        nudgeStep index 400000
variable        climbStep index 400000
neb             ${etol} ${ftol} ${nudgeStep} ${climbStep} 100 none
neb             0.0 ${ftol} ${nudgeStep} ${climbStep} 100 none
neb             0.0 0.031 ${nudgeStep} ${climbStep} 100 none
neb             0.0 0.031 400000 ${climbStep} 100 none
neb             0.0 0.031 400000 0 100 none
WARNING: Resetting reneighboring criteria during minimization (../min.cpp:168)
Neighbor list info ...
  1 neighbor list requests
  update every 1 steps, delay 0 steps, check yes
  master list distance cutoff = 6.50679
Memory usage per processor = 25.009 Mbytes
Step TotEng PotEng KinEng Temp Press sxx syy szz sxy sxz syz 
       0      -129887.029007156583      -129887.029007156583                         0                         0      -107.343271923873274    -0.0897742663361029425    -0.0947603109808036748       1.08888509445782011     0.0056924359549260636   -0.00452796997903018566   -0.00329449784490329833 
     100      -129887.006366806076        -129887.0408715839     0.0345047778230420099    0.00708760794503547793      -107.403176956100168    -0.0896367739250821666    -0.0945488044486513801       1.08904078617578115     0.0053120199479917158   -0.00362620302813928663    -0.0030983341053154121 
     200      -129887.033987354764      -129887.049833712357     0.0158463575971223847    0.00325499183276109581      -107.537019112077417    -0.0893318601074436641    -0.0940727038285050499       1.08938737126801821    0.00434692460483540339   -0.00247377956851124216   -0.00272661091078749271 
     212      -129887.031522513673      -129887.049379644886     0.0178571312101723258    0.00366802376441443829      -107.557321553717799    -0.0892929028431024563    -0.0939907607732394235       1.08943751588925575    0.00420141286867389916   -0.00236161130330942619    -0.0026650254873098766 
Loop time of 21.3303 on 1 procs for 212 steps with 37664 atoms

Minimization stats:
  Stopping criterion = force tolerance
  Energy initial, next-to-last, final = 
        -129887.029007     -129887.049426      -129887.04938
  Force two-norm initial, final = 0.0469682 0.0277946
  Force max component initial, final = 0.00239666 0.00179979
  Final line search alpha, max atom move = 0 0
  Iterations, force evaluations = 212 212

Pair  time (%) = 20.3457 (95.384)
Neigh time (%) = 0.071595 (0.335648)
Comm  time (%) = 0.000873804 (0.00409653)
Outpt time (%) = 0.004529 (0.0212327)
Other time (%) = 0.907606 (4.255)

Nlocal:    37664 ave 37664 max 37664 min
Histogram: 1 0 0 0 0 0 0 0 0 0
Nghost:    0 ave 0 max 0 min
Histogram: 1 0 0 0 0 0 0 0 0 0
Neighs:    1.52303e+06 ave 1.52303e+06 max 1.52303e+06 min
Histogram: 1 0 0 0 0 0 0 0 0 0

Total # of neighbors = 1523032
Ave neighs/atom = 40.4373
Neighbor list builds = 1
Dangerous builds = 0
WARNING: Resetting reneighboring criteria during minimization (../min.cpp:168)
Memory usage per processor = 25.009 Mbytes
Step TotEng PotEng KinEng Temp Press sxx syy szz sxy sxz syz 
     212      -129887.049379644886      -129887.049379644886                         0                         0      -107.558848411987654    -0.0892902653518266726    -0.0939857335688304152       1.08944271473909571    0.00420162168536720483    -0.0023638647215597215   -0.00266418247061053597 
Loop time of 4.05312e-06 on 1 procs for 0 steps with 37664 atoms

Minimization stats:
  Stopping criterion = force tolerance
  Energy initial, next-to-last, final = 
         -129887.04938     -129887.049426      -129887.04938
  Force two-norm initial, final = 0.0277946 0.0277946
  Force max component initial, final = 0.00179979 0.00179979
  Final line search alpha, max atom move = 0 0
  Iterations, force evaluations = 0 0

Pair  time (%) = 0 (0)
Neigh time (%) = 0 (0)
Comm  time (%) = 0 (0)
Outpt time (%) = 0 (0)
Other time (%) = 4.05312e-06 (100)

Nlocal:    37664 ave 37664 max 37664 min
Histogram: 1 0 0 0 0 0 0 0 0 0
Nghost:    0 ave 0 max 0 min
Histogram: 1 0 0 0 0 0 0 0 0 0
Neighs:    1.52303e+06 ave 1.52303e+06 max 1.52303e+06 min
Histogram: 1 0 0 0 0 0 0 0 0 0

Total # of neighbors = 1523032
Ave neighs/atom = 40.4373
Neighbor list builds = 0
Dangerous builds = 0

