ITEM: TIMESTEP
212
ITEM: NUMBER OF ATOMS
37664
ITEM: BOX BOUNDS ff ff ff
-100 100
-100 100
-156.15 156.15
ITEM: ATOMS id x y z v_peratom_sxx v_peratom_syy v_peratom_szz v_peratom_sxy v_peratom_sxz v_peratom_syz c_atomPE 
1 -0.00343821 -0.00167675 -0.000449248 -5.18077 -5.16819 -9.54196 0.000938487 -0.00786616 -0.0446743 -3.51525 
2 -0.003714 -0.00139797 2.55272 -5.17839 -5.16679 -9.53837 -0.000325139 -0.00649812 -0.044182 -3.51526 
3 -0.00397249 -0.00110036 5.10599 -5.17136 -5.16133 -9.52444 -0.00176341 -0.00411708 -0.043626 -3.51532 
4 -0.0042069 -0.000791385 7.65952 -5.15925 -5.15137 -9.49919 -0.00327876 -0.000683522 -0.0428856 -3.51544 
5 -0.00440633 -0.000478823 10.2135 -5.14142 -5.13619 -9.46106 -0.00475181 0.00363759 -0.0417988 -3.51561 
6 -0.0045584 -0.000169388 12.768 -5.11696 -5.11469 -9.40782 -0.00607197 0.00851368 -0.0402334 -3.51586 
7 -0.00465213 0.000131784 15.3234 -5.08445 -5.08521 -9.33647 -0.00715875 0.0135282 -0.0381373 -3.51619 
8 -0.00467994 0.00042071 17.8799 -5.04181 -5.04549 -9.24307 -0.00796871 0.0182698 -0.0355535 -3.51662 
9 -0.00463853 0.000693649 20.4378 -4.98605 -4.99235 -9.12273 -0.00849136 0.0224021 -0.0326078 -3.51717 
10 -0.00452858 0.000946176 22.9974 -4.91306 -4.92157 -8.96971 -0.00874083 0.0257044 -0.0294853 -3.51786 
11 -0.00435388 0.00117254 25.5592 -4.81746 -4.8277 -8.77813 -0.00874823 0.0280853 -0.026404 -3.51871 
12 -0.00411996 0.00136545 28.1237 -4.69286 -4.70434 -8.54369 -0.00855633 0.0295746 -0.0235893 -3.51974 
13 -0.00383282 0.00151625 30.6912 -4.5334 -4.54563 -8.26676 -0.00821495 0.0302995 -0.021245 -3.52093 
14 -0.00349788 0.00161534 33.2619 -4.33747 -4.35001 -7.95603 -0.00777394 0.0304487 -0.0195246 -3.52222 
15 -0.00311904 0.00165248 35.8358 -4.11291 -4.12537 -7.62897 -0.00727409 0.0302362 -0.0185168 -3.52349 
16 -0.00269812 0.00161661 38.4126 -3.87572 -3.88777 -7.30389 -0.00673895 0.0298608 -0.0182479 -3.52459 
17 -0.00223403 0.00149492 40.9918 -3.63743 -3.6488 -6.98718 -0.00616788 0.0294782 -0.0187102 -3.52548 
18 -0.00171963 0.00127009 43.5732 -3.39901 -3.40939 -6.66601 -0.00552003 0.0292663 -0.0199305 -3.5262 
19 -0.00113675 0.000915682 46.157 -3.13532 -3.14415 -6.30356 -0.00465101 0.0294232 -0.0219764 -3.52694 
20 -0.000463898 0.000391634 48.7436 -2.75309 -2.75801 -5.86431 -0.00262166 0.029278 -0.0247459 -3.52781 
21 5.95933e-07 -4.11185e-08 51.3317 -1.92299 -1.92261 -4.92037 0.000203298 -0.00149395 0.00131369 -3.53204 
22 4.01304e-07 -1.42881e-06 53.9138 -0.852076 -0.85209 -8.91787 -2.19039e-06 -3.76412e-05 -7.33955e-05 -3.48168 
23 8.71386e-07 -1.98378e-06 56.3885 1.68554 1.68555 1.87668 -2.34875e-05 3.22533e-05 7.98312e-07 -2.55581 
24 -1.23087e-07 -1.12453e-06 -53.8876 -2.60663 -2.60668 -6.54946 -1.61797e-05 5.3683e-06 -3.73808e-05 -3.40183 
25 1.02659e-07 -1.55837e-06 -51.3239 -2.07959 -2.07985 -5.58307 -0.000530604 0.000136277 0.00249825 -3.52873 
26 -8.47862e-06 -0.000698939 -48.7463 -2.70361 -2.69977 -6.16009 0.0067958 -0.000742323 -0.0437249 -3.52635 
27 3.07159e-06 -0.00165086 -46.1648 -3.03231 -3.02569 -6.36236 0.0120363 0.00155901 -0.0399084 -3.52673 
28 3.1781e-05 -0.0023422 -43.5826 -3.31431 -3.30538 -6.62324 0.0132489 0.00614545 -0.0363214 -3.52629 
29 9.53868e-05 -0.00283331 -41.0013 -3.57024 -3.55888 -6.91113 0.0132509 0.0105988 -0.0334473 -3.52569 
30 0.00017428 -0.00316673 -38.4216 -3.82069 -3.807 -7.21878 0.0125699 0.014164 -0.0312402 -3.52486 
31 0.00024243 -0.00337261 -35.8442 -4.06686 -4.05117 -7.54232 0.0114842 0.0163511 -0.0297376 -3.52381 
32 0.000274135 -0.0034759 -33.2694 -4.29945 -4.28224 -7.87085 0.0102119 0.0168839 -0.0290554 -3.52258 
33 0.000247716 -0.00349917 -30.6978 -4.50556 -4.48738 -8.18702 0.00893239 0.0157485 -0.0292759 -3.5213 
34 0.000148193 -0.00346267 -28.1293 -4.6768 -4.65819 -8.47391 0.00777241 0.0131948 -0.0303841 -3.52009 
35 -3.08788e-05 -0.00338376 -25.5638 -4.81221 -4.79367 -8.72108 0.00679972 0.00967516 -0.0322504 -3.51901 
36 -0.000286548 -0.0032764 -23.0011 -4.91579 -4.89774 -8.92561 0.00603058 0.00573554 -0.0346445 -3.5181 
37 -0.000607 -0.00315085 -20.4408 -4.99339 -4.9761 -9.08989 0.00544307 0.00189391 -0.0372783 -3.51736 
38 -0.000973742 -0.00301363 -17.8823 -5.05078 -5.03439 -9.21896 0.00499196 -0.00145555 -0.0398534 -3.51677 
39 -0.00136509 -0.00286769 -15.3254 -5.09291 -5.07742 -9.31862 0.0046206 -0.00409454 -0.0421029 -3.51631 
40 -0.00176017 -0.00271283 -12.7696 -5.12368 -5.10897 -9.39431 0.00427004 -0.00598736 -0.0438281 -3.51595 
41 -0.00214245 -0.00254625 -10.2148 -5.146 -5.13187 -9.45067 0.00388335 -0.0072394 -0.0449299 -3.51569 
42 -0.00250203 -0.00236353 -7.66068 -5.16187 -5.14814 -9.49136 0.00340671 -0.00801139 -0.0454238 -3.51549 
43 -0.00283595 -0.00215984 -5.107 -5.17257 -5.15913 -9.51908 0.00278748 -0.00841334 -0.0454285 -3.51536 
44 -0.00314652 -0.00193137 -2.55364 -5.1788 -5.16568 -9.53562 0.00197626 -0.00842185 -0.0451217 -3.51528 
45 0.0926743 2.15858 1.27491 -4.05242 -5.13252 -3.83734 -0.0521834 -0.444369 -0.00359851 -3.52909 
46 0.0661378 2.15985 3.82806 -4.04693 -5.13235 -3.82939 -0.0411267 -0.443392 -0.0132278 -3.5291 
47 0.0396325 2.16078 6.38139 -4.04313 -5.13032 -3.81304 -0.0297279 -0.441755 -0.0230846 -3.52912 
48 0.0131854 2.16137 8.93506 -4.04157 -5.12611 -3.78742 -0.0179369 -0.439646 -0.033335 -3.52915 
49 -0.0131778 2.16161 11.4892 -4.04279 -5.11914 -3.75116 -0.0058229 -0.437301 -0.044201 -3.52919 
50 -0.0394356 2.1615 14.0441 -4.04712 -5.10848 -3.70227 0.00641453 -0.434941 -0.0559942 -3.52923 
51 -0.065572 2.16104 16.6 -4.05451 -5.09276 -3.63801 0.0184608 -0.432731 -0.0691128 -3.52928 
52 -0.0915773 2.16022 19.157 -4.06434 -5.06996 -3.5549 0.0299064 -0.430767 -0.0839968 -3.52934 
53 -0.117447 2.15905 21.7157 -4.07507 -5.03718 -3.44868 0.0402628 -0.429072 -0.101022 -3.52942 
54 -0.143183 2.15755 24.2762 -4.0837 -4.99017 -3.3146 0.0489812 -0.427603 -0.12029 -3.52953 
55 -0.168789 2.15573 26.8391 -4.08474 -4.92302 -3.14826 0.055506 -0.426246 -0.141252 -3.52967 
56 -0.194271 2.15366 29.4049 -4.06915 -4.82805 -2.9472 0.0594182 -0.424816 -0.162185 -3.52986 
57 -0.219629 2.15142 31.9737 -4.02399 -4.69718 -2.71353 0.0607172 -0.423034 -0.179915 -3.53012 
58 -0.244849 2.1491 34.5459 -3.93571 -4.52604 -2.45622 0.0601545 -0.420516 -0.190958 -3.53047 
59 -0.269895 2.14673 37.1213 -3.79895 -4.31998 -2.18947 0.0592229 -0.416778 -0.195086 -3.53088 
60 -0.294717 2.14424 39.6993 -3.62209 -4.09364 -1.92462 0.0594345 -0.411445 -0.197409 -3.53128 
61 -0.319287 2.14151 42.2796 -3.4171 -3.85765 -1.66185 0.0614738 -0.404683 -0.20412 -3.53165 
62 -0.343639 2.13847 44.862 -3.19063 -3.60871 -1.38947 0.0646007 -0.397063 -0.221957 -3.53193 
63 -0.367926 2.1353 47.4463 -2.91322 -3.29675 -1.10356 0.0656139 -0.390741 -0.243079 -3.53223 
64 -0.392512 2.13371 50.032 -2.43029 -2.80161 -0.490668 0.0606698 -0.411311 -0.208377 -3.53325 
65 -0.418483 2.1304 52.6263 -1.76587 -2.00541 -0.56135 0.0454429 -0.308938 -0.730051 -3.52457 
66 -0.44812 2.14653 55.1778 6.9767 7.73847 2.43082 0.0330423 -0.597312 1.77016 -3.02528 
67 0.649859 2.05055 -55.162 1.38951 0.842478 -0.678117 -0.188245 -0.0991946 1.20766 -3.26036 
68 0.633027 2.08274 -52.6122 -1.11211 -2.21877 -0.457746 -0.374507 -0.489283 -0.16146 -3.53567 
69 0.607028 2.08678 -50.0319 -2.00669 -2.55999 -0.881508 -0.166113 -0.426149 0.0748597 -3.53398 
70 0.581657 2.08792 -47.4534 -2.64511 -3.0761 -1.22063 -0.123577 -0.395811 0.145721 -3.5329 
71 0.55712 2.09119 -44.8716 -3.06831 -3.44561 -1.379 -0.100999 -0.390738 0.191261 -3.53225 
72 0.532716 2.09533 -42.2898 -3.369 -3.73109 -1.60746 -0.0911523 -0.394567 0.204442 -3.53182 
73 0.508168 2.09975 -39.7092 -3.61435 -3.98703 -1.85754 -0.0891829 -0.400191 0.211554 -3.53139 
74 0.483379 2.10433 -37.1307 -3.81811 -4.22487 -2.12033 -0.0931008 -0.405715 0.215818 -3.53096 
75 0.45834 2.10904 -34.5546 -3.97695 -4.43944 -2.3887 -0.101178 -0.41077 0.214913 -3.53053 
76 0.433079 2.11387 -31.9816 -4.08649 -4.62093 -2.65065 -0.111083 -0.41557 0.206181 -3.53016 
77 0.407621 2.11876 -29.4119 -4.15001 -4.76414 -2.89262 -0.120307 -0.420264 0.189679 -3.52986 
78 0.381982 2.1236 -26.8453 -4.17786 -4.87122 -3.10467 -0.126995 -0.424728 0.16807 -3.52963 
79 0.356171 2.12829 -24.2817 -4.18199 -4.9486 -3.28265 -0.130294 -0.428745 0.144505 -3.52947 
80 0.330202 2.13274 -21.7205 -4.17232 -5.00354 -3.4272 -0.130142 -0.432171 0.12134 -3.52935 
81 0.304093 2.13691 -19.1615 -4.15588 -5.04235 -3.54171 -0.126924 -0.434979 0.0999301 -3.52926 
82 0.277869 2.14076 -16.6041 -4.13719 -5.0699 -3.6307 -0.121203 -0.437245 0.0808561 -3.5292 
83 0.251554 2.14428 -14.048 -4.11894 -5.08966 -3.69867 -0.11357 -0.439103 0.0642043 -3.52916 
84 0.22517 2.14746 -11.4929 -4.10254 -5.10402 -3.74964 -0.104578 -0.440689 0.0497686 -3.52913 
85 0.198734 2.15032 -8.93856 -4.08855 -5.11454 -3.78687 -0.0947048 -0.442088 0.0371789 -3.5291 
86 0.172258 2.15286 -6.38478 -4.07693 -5.1222 -3.81285 -0.0843342 -0.443295 0.0259853 -3.52909 
87 0.14575 2.15508 -3.83137 -4.0673 -5.12755 -3.82932 -0.0737297 -0.444198 0.0157235 -3.52908 
88 0.119218 2.15699 -1.27818 -4.05922 -5.13094 -3.83732 -0.0630163 -0.444614 0.00597333 -3.52908 
89 0.215528 4.32528 -0.0023914 -3.38841 -4.7368 -3.29908 -0.0751582 -0.922797 0.0358657 -3.53367 
90 0.285469 6.49785 1.2734 -2.76892 -4.33936 -2.86082 -0.0800739 -1.34847 0.0495092 -3.53386 
91 2.20536 2.73611 -0.00139101 -3.3884 -3.53859 -3.05206 -0.418332 -0.325051 0.245857 -3.52984 
92 2.17167 2.76285 2.55171 -3.37359 -3.54904 -3.04985 -0.417671 -0.330379 0.238278 -3.52984 
93 2.29156 4.92752 1.27394 -2.72183 -3.56671 -2.73058 -0.34736 -0.797428 0.0134886 -3.53337 
94 4.28828 3.33606 1.27587 -3.39903 -2.89445 -2.72759 -0.49958 -0.208962 0.75838 -3.53337 
95 0.162628 4.32784 2.55053 -3.37993 -4.73872 -3.29505 -0.0605523 -0.922163 0.0174419 -3.53368 
96 0.10976 4.32971 5.10357 -3.37543 -4.74093 -3.28481 -0.0453522 -0.920946 -0.00121731 -3.53369 
97 0.206214 6.50098 3.8261 -2.76231 -4.34324 -2.85482 -0.061837 -1.34788 0.0233408 -3.53386 
98 2.23125 4.95501 3.82696 -2.70913 -3.57729 -2.72526 -0.33683 -0.798793 -0.00225589 -3.53337 
99 0.127033 6.50305 6.37897 -2.76147 -4.3489 -2.84428 -0.0430343 -1.34725 -0.00338023 -3.53385 
100 4.24717 3.38788 3.82893 -3.38368 -2.90956 -2.72157 -0.505035 -0.22317 0.752268 -3.53337 
101 2.13765 2.78911 5.10493 -3.36039 -3.56114 -3.04075 -0.415172 -0.335408 0.230698 -3.52984 
102 2.10334 2.81488 7.65842 -3.34928 -3.57477 -3.02412 -0.410622 -0.340384 0.222892 -3.52983 
103 2.17063 4.98165 6.38018 -2.70033 -3.58959 -2.71361 -0.324291 -0.800022 -0.0183793 -3.53337 
104 4.2054 3.4391 6.38217 -3.37066 -2.92756 -2.70927 -0.508191 -0.23741 0.745945 -3.53337 
105 0.0569661 4.33087 7.65687 -3.37574 -4.74333 -3.26795 -0.0295444 -0.919402 -0.0204648 -3.5337 
106 0.0042837 4.33133 10.2106 -3.38167 -4.74571 -3.24365 -0.0132523 -0.917789 -0.0407181 -3.5337 
107 0.0479721 6.50405 8.93216 -2.76714 -4.35629 -2.82875 -0.0238296 -1.34683 -0.0311913 -3.53384 
108 2.10975 5.0074 8.93373 -2.69611 -3.60344 -2.69499 -0.309718 -0.801473 -0.0353632 -3.53337 
109 -0.030932 6.50397 11.4858 -2.77995 -4.36529 -2.80736 -0.00446691 -1.34682 -0.0607128 -3.53382 
110 4.16299 3.48969 8.93574 -3.36042 -2.94844 -2.69 -0.508829 -0.252087 0.739137 -3.53337 
111 2.06875 2.84014 10.2123 -3.34078 -3.58973 -2.99889 -0.403842 -0.345637 0.214566 -3.52983 
112 2.0339 2.86487 12.7668 -3.33534 -3.60569 -2.96356 -0.394679 -0.351565 0.205339 -3.52982 
113 2.04863 5.03226 11.4878 -2.69709 -3.61862 -2.6684 -0.293107 -0.803538 -0.0537849 -3.53336 
114 4.11996 3.53962 11.4898 -3.3534 -2.97218 -2.66263 -0.506705 -0.267679 0.731493 -3.53336 
115 -0.0482568 4.33108 12.7649 -3.39384 -4.74766 -3.21057 0.00328691 -0.916306 -0.0624868 -3.5337 
116 -0.100631 4.33011 15.3199 -3.41268 -4.74853 -3.16679 0.0197599 -0.915072 -0.0863699 -3.5337 
117 -0.109648 6.50281 14.04 -2.80042 -4.37568 -2.77881 0.0147683 -1.34735 -0.092658 -3.53379 
118 1.98729 5.05618 14.0424 -2.70381 -3.63481 -2.63239 -0.274446 -0.806627 -0.0743209 -3.53336 
119 -0.18815 6.50054 16.595 -2.82894 -4.38705 -2.74114 0.0335795 -1.34844 -0.127816 -3.53374 
120 4.07633 3.58887 14.0445 -3.34995 -2.99873 -2.62567 -0.50153 -0.284744 0.72256 -3.53336 
121 1.99881 2.88906 15.3222 -3.3332 -3.62212 -2.91613 -0.382981 -0.358613 0.194733 -3.5298 
122 1.96349 2.91267 17.8785 -3.33427 -3.63818 -2.85399 -0.368584 -0.367241 0.1822 -3.52978 
123 1.92575 5.07915 16.598 -2.71663 -3.65148 -2.58497 -0.253698 -0.811155 -0.0977295 -3.53334 
124 4.03209 3.63739 16.6001 -3.35026 -3.02792 -2.57713 -0.492969 -0.303905 0.711766 -3.53335 
125 -0.152822 4.32843 17.876 -3.43829 -4.74725 -3.10966 0.0358049 -0.914116 -0.113017 -3.53369 
126 -0.204816 4.32603 20.4333 -3.47027 -4.74213 -3.03575 0.0510195 -0.913381 -0.143036 -3.53368 
127 -0.266415 6.49718 19.1511 -2.86565 -4.39855 -2.69169 0.0516781 -1.35003 -0.166992 -3.53369 
128 1.86403 5.10113 19.1547 -2.73564 -3.66775 -2.52359 -0.230813 -0.817537 -0.124795 -3.53332 
129 -0.344423 6.49272 21.7084 -2.9102 -4.40859 -2.6269 0.06879 -1.35187 -0.21086 -3.53362 
130 3.98726 3.68514 19.1568 -3.3542 -3.05927 -2.51456 -0.480657 -0.325826 0.698428 -3.53333 
131 1.92793 2.9357 20.4362 -3.33794 -3.65248 -2.77395 -0.35133 -0.377889 0.167163 -3.52975 
132 1.89215 2.95811 22.9956 -3.34265 -3.66271 -2.67226 -0.331145 -0.390887 0.149141 -3.52971 
133 1.80213 5.12211 21.7128 -2.76045 -3.68213 -2.44508 -0.205784 -0.82616 -0.156202 -3.5333 
134 3.94183 3.7321 21.7148 -3.36113 -3.09176 -2.43502 -0.46428 -0.351141 0.681807 -3.53331 
135 -0.256604 4.32293 22.9923 -3.5073 -4.73036 -2.94081 0.0649466 -0.912724 -0.176793 -3.53368 
136 -0.308183 4.31917 25.5533 -3.54637 -4.70753 -2.81997 0.0770493 -0.911943 -0.214045 -3.53369 
137 -0.422151 6.48719 24.2674 -2.96124 -4.41431 -2.54212 0.0846437 -1.35356 -0.259668 -3.53355 
138 1.74006 5.14206 24.2727 -2.78971 -3.69214 -2.34583 -0.178756 -0.837313 -0.192279 -3.53327 
139 -0.499584 6.48067 26.8285 -3.01561 -4.4108 -2.43174 0.0989218 -1.35456 -0.312703 -3.5335 
140 3.89582 3.77822 24.2747 -3.3695 -3.12339 -2.3352 -0.443732 -0.380273 0.661244 -3.53327 
141 1.85616 2.97993 25.5571 -3.34532 -3.66512 -2.54497 -0.308185 -0.406248 0.128001 -3.52966 
142 1.81999 3.00118 28.1211 -3.34026 -3.65372 -2.38867 -0.283093 -0.423268 0.104452 -3.52961 
143 1.67786 5.16102 26.8348 -2.82041 -3.69376 -2.22212 -0.150239 -0.851 -0.232519 -3.53322 
144 3.84928 3.8235 26.8367 -3.37614 -3.15049 -2.21163 -0.419373 -0.413047 0.636501 -3.53323 
145 -0.359556 4.31482 28.1168 -3.58152 -4.66688 -2.66838 0.0867066 -0.910809 -0.25334 -3.53372 
146 -0.410723 4.31004 30.6832 -3.6022 -4.59894 -2.48281 0.0933089 -0.909063 -0.29134 -3.5338 
147 -0.576707 6.47332 29.392 -3.06699 -4.39017 -2.28973 0.11116 -1.35432 -0.36751 -3.53347 
148 1.61556 5.1791 29.3995 -2.84656 -3.68085 -2.07078 -0.121407 -0.866515 -0.274812 -3.53316 
149 -0.653512 6.46541 31.9586 -3.10403 -4.34061 -2.11141 0.120639 -1.35242 -0.419149 -3.53349 
150 3.8023 3.86801 29.4012 -3.37523 -3.16678 -2.06116 -0.392386 -0.448 0.608368 -3.53316 
151 1.78374 3.02197 30.6881 -3.31805 -3.61974 -2.20177 -0.257313 -0.439956 0.0807598 -3.52956 
152 1.74753 3.04246 33.2582 -3.2653 -3.55198 -1.98638 -0.233234 -0.452746 0.061138 -3.52954 
153 1.55326 5.19652 31.9672 -2.85759 -3.64436 -1.89032 -0.0943979 -0.881731 -0.314574 -3.5331 
154 3.75508 3.91186 31.9688 -3.35679 -3.16222 -1.88191 -0.365064 -0.481531 0.579521 -3.5331 
155 -0.461679 4.30503 33.2529 -3.59246 -4.4924 -2.26448 0.0965644 -0.906253 -0.322872 -3.53396 
156 -0.51238 4.30001 35.8261 -3.53444 -4.33835 -2.02206 0.0969941 -0.901473 -0.343407 -3.53423 
157 -0.729979 6.45732 34.5287 -3.10897 -4.24666 -1.89711 0.126486 -1.34834 -0.460577 -3.53362 
158 1.49112 5.21363 34.5382 -2.83727 -3.57222 -1.68247 -0.0721819 -0.892433 -0.344827 -3.53308 
159 -0.806036 6.44941 37.1024 -3.06045 -4.0937 -1.65696 0.128357 -1.34074 -0.486142 -3.53389 
160 3.70791 3.9553 34.5396 -3.30565 -3.12283 -1.67498 -0.340598 -0.507806 0.554928 -3.53307 
161 1.71155 3.06285 35.8318 -3.16802 -3.44041 -1.74969 -0.213539 -0.457785 0.0500961 -3.5296 
162 1.67596 3.08324 38.4083 -3.0206 -3.28322 -1.5024 -0.199363 -0.45471 0.0472285 -3.52977 
163 1.4294 5.23082 37.1125 -2.7666 -3.45168 -1.45408 -0.057445 -0.893366 -0.359654 -3.53313 
164 3.66118 3.99862 37.1139 -3.20367 -3.03432 -1.44699 -0.321793 -0.521438 0.539737 -3.53312 
165 -0.562743 4.29502 38.4024 -3.41922 -4.13912 -1.77067 0.0962281 -0.893536 -0.35449 -3.53458 
166 -0.612672 4.28991 40.9813 -3.25433 -3.91072 -1.5226 0.0964633 -0.881923 -0.36515 -3.53492 
167 -0.881553 6.44179 39.6793 -2.94685 -3.8813 -1.41076 0.127473 -1.32791 -0.49897 -3.53426 
168 1.36833 5.24826 39.6899 -2.63502 -3.27806 -1.21696 -0.0505771 -0.883287 -0.36235 -3.5333 
169 -0.956423 6.43414 42.2586 -2.7766 -3.62952 -1.1761 0.12651 -1.30982 -0.511883 -3.53461 
170 3.61514 4.04195 39.6912 -3.04064 -2.89165 -1.21025 -0.30906 -0.523677 0.532538 -3.53329 
171 1.64076 3.10355 40.9875 -2.83144 -3.08929 -1.25219 -0.189041 -0.448809 0.0444958 -3.53 
172 1.60587 3.12364 43.5687 -2.61051 -2.86666 -0.99667 -0.180056 -0.44667 0.0335228 -3.53027 
173 1.30796 5.26581 42.2697 -2.44901 -3.06049 -0.981159 -0.0487738 -0.86873 -0.367378 -3.53355 
174 3.56973 4.0852 42.2708 -2.82397 -2.70324 -0.976497 -0.300224 -0.524372 0.522443 -3.53354 
175 -0.662151 4.28447 43.5622 -3.05103 -3.66346 -1.27719 0.0988411 -0.867498 -0.383845 -3.53523 
176 -0.711347 4.27865 46.1445 -2.82131 -3.39513 -1.01431 0.102563 -0.852383 -0.416128 -3.53549 
177 -1.03071 6.42627 44.8393 -2.55673 -3.34519 -0.959462 0.12681 -1.28882 -0.530212 -3.53496 
178 1.24815 5.2833 44.851 -2.21578 -2.80365 -0.748306 -0.0503132 -0.858204 -0.386306 -3.53386 
179 -1.10477 6.4185 47.4203 -2.29409 -3.01658 -0.772452 0.129216 -1.26939 -0.544308 -3.53529 
180 3.52474 4.1283 44.852 -2.55899 -2.47641 -0.751586 -0.29264 -0.53245 0.500831 -3.53383 
181 1.57109 3.14347 46.1516 -2.36245 -2.61775 -0.718378 -0.172024 -0.455915 0.00582812 -3.53054 
182 1.53627 3.16344 48.7364 -2.08809 -2.36098 -0.347121 -0.183288 -0.478892 -0.0348817 -3.53015 
183 1.18845 5.30075 47.4331 -1.94163 -2.50472 -0.517255 -0.0635573 -0.864436 -0.431936 -3.53412 
184 3.4799 4.1713 47.4338 -2.23951 -2.2206 -0.543821 -0.286437 -0.558561 0.456223 -3.53404 
185 -0.76075 4.27348 48.7284 -2.60118 -3.07323 -0.666138 0.0966158 -0.842648 -0.423361 -3.53517 
186 -0.811621 4.26877 51.3169 -1.98844 -2.35082 0.313304 0.0838721 -0.842224 -0.652865 -3.53805 
187 -1.17889 6.41384 50.0002 -2.05513 -2.54106 -0.330345 0.0856846 -1.2753 -0.621514 -3.53574 
188 1.12775 5.31799 50.0156 -1.56923 -2.0789 -0.0206696 -0.110054 -0.944454 -0.598004 -3.53484 
189 -1.25707 6.40546 52.5877 -1.61236 -2.48691 0.643292 0.17584 -1.31633 -0.612959 -3.53281 
190 3.43505 4.21346 50.0156 -1.75943 -1.85317 -0.0394752 -0.309398 -0.668123 0.310904 -3.5349 
191 1.50027 3.18358 51.3264 -1.43163 -1.70123 0.657723 -0.17262 -0.548787 -0.132901 -3.53273 
192 1.46587 3.20964 53.9052 0.0266719 0.953955 -0.795993 0.566291 -0.561015 0.13892 -3.37565 
193 1.06597 5.33731 52.6041 -1.24926 -1.89865 0.441368 -0.237017 -0.801284 -0.41073 -3.52779 
194 3.38747 4.26008 52.6041 -1.41018 -1.71375 0.3897 -0.390632 -0.639364 0.587453 -3.52746 
195 -0.866323 4.2769 53.8949 -0.0508233 -0.206193 -1.18043 0.0793929 -1.26166 1.02744 -3.38132 
196 1.3298 4.1174 -56.3442 5.06943 2.90553 1.6024 -1.25476 -0.273887 0.110271 -2.79034 
197 -1.33605 6.40133 55.1665 4.17992 2.79753 1.28992 0.319901 -1.52322 0.197953 -3.26107 
198 1.00488 5.36129 55.1754 5.64224 6.63191 2.70782 0.369933 -0.636439 -0.0325238 -3.15047 
199 1.98371 6.26223 -55.1334 6.93994 9.11552 2.92926 0.134174 -0.847915 -0.525691 -3.02309 
200 3.34328 4.30996 55.1754 5.53067 7.35783 2.86918 0.118677 -0.278572 0.562692 -3.15115 
201 2.87095 2.09325 -56.362 4.04254 6.0065 1.88108 -3.16454 0.252679 0.341822 -2.79939 
202 2.84551 2.1252 -53.8874 0.165098 0.763353 -3.02644 -0.982078 -0.732802 -0.162355 -3.51266 
203 3.53831 4.21674 -55.1525 6.03167 6.27393 1.75931 0.302435 -1.21948 -0.0444696 -3.1433 
204 5.07312 2.13635 -55.1525 6.04998 7.03888 2.00311 0.446056 -0.52811 0.0805562 -3.14511 
205 1.29262 4.16451 -53.8815 0.861254 -0.348122 -3.67512 -0.408824 -0.573882 0.838995 -3.51412 
206 1.24176 4.17585 -51.3147 -1.28732 -1.91148 -0.378379 -0.214928 -0.88104 0.220624 -3.53904 
207 1.90264 6.26187 -52.5941 -0.917977 -1.45671 -0.572873 -0.184171 -1.16805 0.820097 -3.52792 
208 3.4607 4.22944 -52.6036 -0.749104 -0.925908 0.0952046 -0.677526 -0.496115 0.191341 -3.53019 
209 1.82403 6.27282 -50.0101 -1.64501 -2.33093 -0.270908 -0.197389 -1.27746 0.429114 -3.53673 
210 5.01221 2.17771 -52.6036 -1.34201 -0.348687 0.0543823 -0.50259 0.0191611 0.991478 -3.52952 
211 2.80522 2.14769 -51.32 -1.10392 -0.947188 -0.114953 -0.27828 -0.333714 0.262292 -3.53415 
212 2.77244 2.17446 -48.7405 -1.9747 -1.84017 -0.552717 -0.291201 -0.21762 0.335129 -3.53087 
213 3.40036 4.25787 -50.02 -1.43366 -1.65584 -0.144525 -0.409275 -0.70528 0.285602 -3.53497 
214 4.971 2.23184 -50.02 -1.84598 -1.27517 -0.117302 -0.296732 0.0242712 0.835054 -3.53501 
215 1.18985 4.18024 -48.7356 -2.184 -2.76205 -0.797984 -0.179991 -0.842307 0.275207 -3.5364 
216 1.14024 4.18598 -46.1543 -2.64405 -3.19482 -0.98568 -0.161775 -0.827301 0.395767 -3.53605 
217 1.74897 6.27835 -47.4307 -2.10602 -2.83635 -0.686606 -0.212499 -1.23609 0.540264 -3.53589 
218 3.34537 4.28724 -47.4412 -1.90248 -2.2104 -0.570979 -0.300385 -0.633518 0.334308 -3.53415 
219 1.67528 6.28989 -44.8498 -2.47649 -3.19302 -0.873267 -0.198389 -1.2395 0.600055 -3.53535 
220 4.93514 2.28424 -47.4404 -2.32651 -1.78977 -0.546952 -0.210951 0.110784 0.86333 -3.5342 
221 2.74244 2.20148 -46.1595 -2.37193 -2.27034 -0.74634 -0.22934 -0.155997 0.390427 -3.53075 
222 2.71427 2.22992 -43.5779 -2.68609 -2.59277 -0.957208 -0.212093 -0.144451 0.411338 -3.53038 
223 3.29211 4.31924 -44.8607 -2.24044 -2.57476 -0.725633 -0.258931 -0.619628 0.370114 -3.53393 
224 4.90246 2.33714 -44.8597 -2.66437 -2.14427 -0.728147 -0.175593 0.14804 0.894986 -3.53393 
225 1.0913 4.19429 -43.5725 -2.98434 -3.51441 -1.2131 -0.147986 -0.835263 0.422461 -3.53554 
226 1.04224 4.20337 -40.9915 -3.24597 -3.78958 -1.45394 -0.145084 -0.848512 0.429917 -3.5351 
227 1.60175 6.30321 -42.2688 -2.76041 -3.49904 -1.09981 -0.19721 -1.25732 0.616611 -3.53485 
228 3.23972 4.35275 -42.2799 -2.51535 -2.87094 -0.92518 -0.241185 -0.621986 0.388285 -3.53361 
229 1.52771 6.31726 -39.6892 -2.97274 -3.76626 -1.34341 -0.203887 -1.27679 0.620888 -3.53439 
230 4.87126 2.39098 -42.2788 -2.94923 -2.42635 -0.933731 -0.164111 0.159754 0.920455 -3.5336 
231 2.68661 2.25917 -40.9968 -2.94354 -2.85426 -1.18686 -0.208684 -0.142444 0.425826 -3.53007 
232 2.659 2.28906 -38.4173 -3.15823 -3.06946 -1.42852 -0.213069 -0.14197 0.437689 -3.52981 
233 3.18752 4.38737 -39.7 -2.73398 -3.11092 -1.14856 -0.235277 -0.627223 0.399042 -3.53334 
234 4.84061 2.44583 -39.699 -3.18724 -2.64431 -1.15733 -0.164251 0.16437 0.942471 -3.53333 
235 0.992741 4.21279 -38.4122 -3.44724 -4.03409 -1.70465 -0.149788 -0.861375 0.431583 -3.53468 
236 0.942767 4.22247 -35.8352 -3.58966 -4.24449 -1.95982 -0.159132 -0.872077 0.426531 -3.5343 
237 1.45298 6.33188 -37.1117 -3.11634 -3.98997 -1.59529 -0.214594 -1.29324 0.616153 -3.53398 
238 3.13525 4.42298 -37.1222 -2.8966 -3.29464 -1.38201 -0.238363 -0.634233 0.401419 -3.53315 
239 1.37762 6.34705 -34.5373 -3.19201 -4.15897 -1.84167 -0.225018 -1.30614 0.597481 -3.53367 
240 4.81021 2.50171 -37.1211 -3.37555 -2.80097 -1.38973 -0.17426 0.163634 0.956614 -3.53314 
241 2.63135 2.31956 -35.8401 -3.32914 -3.23864 -1.67442 -0.22462 -0.144497 0.443638 -3.52964 
242 2.60364 2.35057 -33.2658 -3.4517 -3.35958 -1.91423 -0.243097 -0.153323 0.439804 -3.52955 
243 3.08283 4.45946 -34.5472 -3.00097 -3.42072 -1.61189 -0.249752 -0.646237 0.390162 -3.53306 
244 4.77999 2.55847 -34.546 -3.50888 -2.89829 -1.61893 -0.19425 0.152573 0.95781 -3.53306 
245 0.892379 4.23241 -33.2614 -3.67253 -4.41177 -2.208 -0.169712 -0.880807 0.410734 -3.534 
246 0.84165 4.24251 -30.6909 -3.70323 -4.53313 -2.43564 -0.178514 -0.888289 0.383192 -3.53379 
247 1.30175 6.36262 -31.9664 -3.20964 -4.27119 -2.06626 -0.232074 -1.31648 0.562598 -3.53349 
248 3.03016 4.49651 -31.9755 -3.05178 -3.49633 -1.82554 -0.26775 -0.664103 0.364128 -3.53307 
249 1.22542 6.37826 -29.3991 -3.18707 -4.33631 -2.25804 -0.234701 -1.32472 0.515113 -3.53342 
250 4.74978 2.61583 -31.9741 -3.58972 -2.94559 -1.83271 -0.222632 0.128818 0.945926 -3.53306 
251 2.57577 2.38191 -30.6947 -3.52735 -3.43642 -2.13669 -0.26671 -0.168992 0.425987 -3.52954 
252 2.54762 2.41334 -28.1269 -3.56467 -3.47955 -2.33342 -0.292519 -0.18901 0.405563 -3.52957 
253 2.97707 4.53372 -29.407 -3.06146 -3.53544 -2.01468 -0.289354 -0.685296 0.327856 -3.53311 
254 4.71929 2.67346 -29.4055 -3.62852 -2.95807 -2.02248 -0.255998 0.095244 0.925413 -3.5331 
255 0.790619 4.25255 -28.1237 -3.69642 -4.61447 -2.63317 -0.183745 -0.894841 0.347119 -3.53368 
256 0.739308 4.26231 -25.5596 -3.66734 -4.66554 -2.79709 -0.184833 -0.9004 0.3072 -3.53362 
257 1.14867 6.39356 -26.8349 -3.14185 -4.36806 -2.41375 -0.233052 -1.33084 0.461201 -3.53342 
258 2.92341 4.57069 -26.8417 -3.04421 -3.55171 -2.176 -0.311295 -0.706674 0.287403 -3.53317 
259 1.07152 6.4082 -24.2735 -3.08731 -4.37882 -2.53579 -0.227608 -1.33502 0.406341 -3.53347 
260 4.68823 2.73107 -26.8401 -3.63774 -2.9503 -2.18424 -0.29068 0.0568693 0.901284 -3.53315 
261 2.51903 2.44464 -25.5621 -3.57472 -3.50055 -2.50051 -0.317758 -0.210278 0.382561 -3.52962 
262 2.48993 2.47567 -22.9999 -3.56746 -3.5088 -2.63792 -0.340564 -0.230549 0.359904 -3.52967 
263 2.86907 4.60713 -24.2791 -3.01193 -3.55535 -2.30964 -0.33101 -0.72606 0.247363 -3.53323 
264 4.65637 2.78843 -24.2774 -3.62817 -2.93315 -2.31776 -0.323979 0.0180914 0.877134 -3.5332 
265 0.687729 4.2716 -22.9981 -3.62787 -4.69583 -2.92871 -0.181973 -0.904911 0.267315 -3.5336 
266 0.635905 4.2803 -20.4388 -3.58589 -4.71291 -3.03189 -0.175724 -0.908493 0.22985 -3.5336 
267 0.993997 6.42195 -21.7143 -3.03207 -4.3778 -2.62918 -0.21892 -1.33775 0.354089 -3.53353 
268 2.81402 4.64286 -21.7187 -2.97311 -3.55305 -2.4178 -0.347032 -0.74246 0.210302 -3.53327 
269 0.916151 6.43468 -19.1568 -2.98096 -4.37113 -2.69953 -0.207586 -1.33964 0.30619 -3.5336 
270 4.6236 2.84543 -21.717 -3.60788 -2.91364 -2.42519 -0.354395 -0.0182864 0.854992 -3.53325 
271 2.46028 2.50633 -20.44 -3.55037 -3.51079 -2.74811 -0.360027 -0.248646 0.339175 -3.52971 
272 2.43007 2.53657 -17.882 -3.52858 -3.51051 -2.8347 -0.375947 -0.264194 0.320987 -3.52975 
273 2.75827 4.67781 -19.1603 -2.93316 -3.54883 -2.50366 -0.358856 -0.755733 0.177228 -3.5333 
274 4.58986 2.90197 -19.1585 -3.58236 -2.89578 -2.50993 -0.381355 -0.0509459 0.835731 -3.53328 
275 0.583863 4.28834 -17.8812 -3.54596 -4.7221 -3.11135 -0.166772 -0.911393 0.195901 -3.53361 
276 0.53163 4.29569 -15.325 -3.51033 -4.72692 -3.17165 -0.155816 -0.913881 0.165688 -3.53362 
277 0.838013 6.44635 -16.6007 -2.9361 -4.36257 -2.75191 -0.194238 -1.34119 0.263127 -3.53366 
278 2.70184 4.71192 -16.6034 -2.89512 -3.54492 -2.57069 -0.366626 -0.766218 0.148215 -3.53332 
279 0.759616 6.45691 -14.0457 -2.89787 -4.35424 -2.79052 -0.179494 -1.34276 0.224637 -3.53371 
280 4.55515 2.95804 -16.6016 -3.55507 -2.88156 -2.57565 -0.404855 -0.0795998 0.819506 -3.53331 
281 2.39934 2.56638 -15.3254 -3.50527 -3.51019 -2.90161 -0.388552 -0.277305 0.305372 -3.52978 
282 2.3681 2.59576 -12.7699 -3.48231 -3.51095 -2.95246 -0.398286 -0.288324 0.292063 -3.5298 
283 2.64479 4.74519 -14.0477 -2.86044 -3.54239 -2.6222 -0.370827 -0.774428 0.122851 -3.53334 
284 4.51952 3.0136 -14.0459 -3.52804 -2.8717 -2.62582 -0.425194 -0.104552 0.80607 -3.53332 
285 0.479233 4.30234 -12.7698 -3.47976 -4.72953 -3.21675 -0.143504 -0.916163 0.138926 -3.53363 
286 0.426693 4.30829 -10.2155 -3.45409 -4.73115 -3.24979 -0.130387 -0.91831 0.115066 -3.53364 
287 0.680986 6.46639 -11.4915 -2.86568 -4.34721 -2.81857 -0.163889 -1.34443 0.190084 -3.53375 
288 2.58715 4.77763 -11.493 -2.82952 -3.54169 -2.66111 -0.372059 -0.780881 0.100524 -3.53335 
289 0.60215 6.47479 -8.93795 -2.83855 -4.34194 -2.83842 -0.147805 -1.34609 0.158675 -3.53379 
290 4.48299 3.06864 -11.4911 -3.50229 -2.86624 -2.66344 -0.442781 -0.126379 0.794988 -3.53334 
291 2.33639 2.62469 -10.2153 -3.46061 -3.51322 -2.99035 -0.405649 -0.297674 0.280658 -3.52982 
292 2.30423 2.6532 -7.66128 -3.44046 -3.51712 -3.01772 -0.411095 -0.305751 0.270718 -3.52983 
293 2.52897 4.80924 -8.93889 -2.80217 -3.54291 -2.68978 -0.370876 -0.785991 0.0805753 -3.53335 
294 4.4456 3.12318 -8.93701 -3.47824 -2.86491 -2.69088 -0.458017 -0.145727 0.785755 -3.53335 
295 0.37403 4.31355 -7.66173 -3.43272 -4.73245 -3.27317 -0.116868 -0.920246 0.0934533 -3.53365 
296 0.321264 4.31814 -5.10839 -3.41493 -4.73373 -3.28855 -0.103165 -0.921776 0.0734281 -3.53366 
297 0.523137 6.48213 -6.38479 -2.81556 -4.33854 -2.85171 -0.13143 -1.34751 0.129604 -3.53381 
298 2.47027 4.84003 -6.38531 -2.77798 -3.54605 -2.71004 -0.367684 -0.790048 0.0623895 -3.53336 
299 0.443987 6.48842 -3.83193 -2.79619 -4.337 -2.85949 -0.114767 -1.34843 0.102129 -3.53383 
300 4.40741 3.1772 -6.38343 -3.45594 -2.86735 -2.70996 -0.471212 -0.163199 0.777879 -3.53336 
301 2.27166 2.68127 -5.10775 -3.42182 -3.52265 -3.03641 -0.414952 -0.312873 0.261828 -3.52983 
302 2.2387 2.70891 -2.5545 -3.40451 -3.5298 -3.04764 -0.417372 -0.319257 0.253634 -3.52984 
303 2.41112 4.87001 -3.83207 -2.75658 -3.55106 -2.72314 -0.362697 -0.793224 0.0454334 -3.53336 
304 4.36843 3.2307 -3.83018 -3.43532 -2.87322 -2.72198 -0.482539 -0.179302 0.77092 -3.53336 
305 0.26842 4.32205 -2.55532 -3.4002 -4.73516 -3.29699 -0.0893024 -0.922674 0.0543962 -3.53367 
306 0.364746 6.49366 -1.27924 -2.78047 -4.33727 -2.86241 -0.0976947 -1.34873 0.0756106 -3.53385 
307 2.35153 4.89918 -1.27903 -2.7378 -3.55795 -2.72987 -0.355948 -0.79564 0.0292614 -3.53337 
308 4.32871 3.28366 -1.27712 -3.41633 -2.88231 -2.72773 -0.492026 -0.194445 0.764516 -3.53336 
309 2.4365 7.09145 -0.00286455 -2.21151 -3.35661 -2.40145 -0.318613 -1.1995 -0.184638 -3.53292 
310 0.434726 8.66873 -0.00327509 -2.24342 -4.01107 -2.49411 -0.100589 -1.73428 0.0853797 -3.53361 