ITEM: TIMESTEP
0
ITEM: NUMBER OF ATOMS
37664
ITEM: BOX BOUNDS ff ff ff
-100 100
-100 100
-156.15 156.15
ITEM: ATOMS id x y z v_peratom_sxx v_peratom_syy v_peratom_szz v_peratom_sxy v_peratom_sxz v_peratom_syz c_atomPE 
1 1.77043e-07 -6.51867e-07 0.00056874 -5.17235 -5.17235 -9.54625 1.64083e-07 -5.57854e-07 2.20751e-06 -3.51521 
2 2.0246e-07 -6.13985e-07 2.55361 -5.16976 -5.16976 -9.54141 2.29914e-07 -4.61971e-07 2.2822e-06 -3.51523 
3 2.32169e-07 -5.73868e-07 5.10677 -5.16317 -5.16317 -9.52643 3.04696e-07 -3.05641e-07 2.32516e-06 -3.5153 
4 2.67125e-07 -5.32346e-07 7.6602 -5.15221 -5.15221 -9.50054 3.89492e-07 -8.53717e-08 2.3283e-06 -3.51542 
5 3.08353e-07 -4.9039e-07 10.2141 -5.13615 -5.13615 -9.46226 4.84472e-07 2.06712e-07 2.2807e-06 -3.5156 
6 3.57034e-07 -4.49124e-07 12.7686 -5.11387 -5.11387 -9.40934 5.87784e-07 5.85366e-07 2.16824e-06 -3.51585 
7 4.14624e-07 -4.09805e-07 15.3239 -5.08372 -5.08372 -9.33868 6.93785e-07 1.07586e-06 1.97397e-06 -3.51617 
8 4.83009e-07 -3.7372e-07 17.8803 -5.0434 -5.0434 -9.24616 7.90423e-07 1.71847e-06 1.6806e-06 -3.5166 
9 5.64641e-07 -3.4192e-07 20.4381 -4.98972 -4.98972 -9.1267 8.55855e-07 2.57222e-06 1.27794e-06 -3.51714 
10 6.62496e-07 -3.1462e-07 22.9976 -4.91842 -4.91842 -8.97435 8.55125e-07 3.71271e-06 7.79934e-07 -3.51783 
11 7.795e-07 -2.90099e-07 25.5594 -4.82402 -4.82402 -8.78306 7.39262e-07 5.21262e-06 2.57207e-07 -3.51868 
12 9.16772e-07 -2.62999e-07 28.1238 -4.70008 -4.70008 -8.54841 4.50922e-07 7.08428e-06 -1.13637e-07 -3.51971 
13 1.06985e-06 -2.2242e-07 30.6912 -4.5407 -4.5407 -8.27069 -5.96028e-08 9.1608e-06 -2.46063e-09 -3.5209 
14 1.22266e-06 -1.51529e-07 33.2619 -4.34432 -4.34431 -7.95868 -8.10335e-07 1.09214e-05 1.05352e-06 -3.5222 
15 1.34153e-06 -3.22104e-08 35.8357 -4.11886 -4.11886 -7.62999 -1.76509e-06 1.13596e-05 3.43558e-06 -3.52348 
16 1.37615e-06 1.41262e-07 38.4125 -3.88051 -3.88051 -7.30316 -2.80304e-06 9.13956e-06 6.92973e-06 -3.52458 
17 1.28354e-06 3.3753e-07 40.9916 -3.64099 -3.64099 -6.98482 -3.57129e-06 3.66436e-06 9.83933e-06 -3.52548 
18 1.08964e-06 4.81429e-07 43.5731 -3.40135 -3.40135 -6.66233 -3.04588e-06 -2.46267e-06 9.1952e-06 -3.52621 
19 8.51109e-07 5.42933e-07 46.1569 -3.13634 -3.13634 -6.29901 5.81696e-07 -7.18418e-06 5.78205e-06 -3.52695 
20 4.02075e-07 5.63881e-07 48.7435 -2.75204 -2.75203 -5.85955 2.99055e-06 -2.24138e-05 4.44071e-06 -3.52783 
21 5.95933e-07 -4.11185e-08 51.3317 -1.92339 -1.9234 -4.91992 1.1399e-05 9.69327e-06 -1.75762e-05 -3.53203 
22 4.01304e-07 -1.42881e-06 53.9138 -0.851595 -0.8516 -8.91763 3.73467e-06 -5.81696e-06 -7.15311e-05 -3.48169 
23 8.71386e-07 -1.98378e-06 56.3885 1.68569 1.68569 1.87725 -9.53205e-07 8.77556e-06 -2.64609e-06 -2.55581 
24 -1.23087e-07 -1.12453e-06 -53.8876 -2.60758 -2.60756 -6.54996 -1.94381e-05 1.97549e-05 -2.88497e-05 -3.40182 
25 1.02659e-07 -1.55837e-06 -51.3239 -2.07853 -2.07854 -5.57775 -5.27309e-06 2.73761e-05 -7.56003e-06 -3.52873 
26 6.54503e-07 -9.74935e-07 -48.7462 -2.69104 -2.69105 -6.14278 -2.35259e-06 -5.74817e-06 2.28731e-06 -3.52641 
27 5.61314e-07 -7.38897e-07 -46.1645 -3.0164 -3.0164 -6.34048 1.89442e-06 -1.10216e-05 -7.37112e-08 -3.52681 
28 3.52672e-07 -6.30026e-07 -43.5819 -3.29663 -3.29663 -6.59911 1.79815e-06 -8.98408e-06 -3.32289e-06 -3.52639 
29 1.43226e-07 -6.46927e-07 -41.0003 -3.55055 -3.55055 -6.88624 1.89803e-06 -3.78533e-06 -2.99632e-06 -3.52579 
30 1.33238e-08 -7.05358e-07 -38.4204 -3.79942 -3.79942 -7.19432 1.65651e-06 -5.06734e-08 -1.11253e-06 -3.52496 
31 -4.45208e-08 -7.50714e-07 -35.8427 -4.04478 -4.04477 -7.51949 1.22965e-06 1.625e-06 2.98989e-07 -3.52389 
32 -6.1687e-08 -7.74359e-07 -33.2677 -4.27742 -4.27741 -7.85072 8.22091e-07 2.18357e-06 8.43343e-07 -3.52266 
33 -5.81243e-08 -7.8546e-07 -30.6958 -4.48439 -4.48439 -8.17038 5.07779e-07 2.2512e-06 8.73704e-07 -3.52136 
34 -4.34398e-08 -7.92522e-07 -28.1272 -4.65715 -4.65715 -8.46119 2.83392e-07 2.0663e-06 7.73923e-07 -3.52012 
35 -2.29851e-08 -7.98755e-07 -25.5618 -4.79459 -4.79458 -8.71238 1.27339e-07 1.73398e-06 7.34624e-07 -3.51903 
36 -2.94991e-10 -8.03803e-07 -22.9991 -4.90051 -4.90051 -8.92075 2.37209e-08 1.32947e-06 7.96279e-07 -3.5181 
37 2.2385e-08 -8.06133e-07 -20.4387 -4.98054 -4.98053 -9.08849 -3.80783e-08 9.10818e-07 9.35478e-07 -3.51734 
38 4.38751e-08 -8.04333e-07 -17.8803 -5.04021 -5.04021 -9.2205 -6.67891e-08 5.17441e-07 1.11651e-06 -3.51674 
39 6.37941e-08 -7.97527e-07 -15.3235 -5.08425 -5.08425 -9.32248 -7.03122e-08 1.72695e-07 1.31107e-06 -3.51627 
40 8.23037e-08 -7.85364e-07 -12.7679 -5.11636 -5.11636 -9.39983 -5.54488e-08 -1.1138e-07 1.50176e-06 -3.51591 
41 9.99107e-08 -7.67873e-07 -10.2132 -5.13936 -5.13935 -9.45715 -2.7495e-08 -3.29889e-07 1.6797e-06 -3.51564 
42 1.1733e-07 -7.45327e-07 -7.65921 -5.15526 -5.15525 -9.49809 9.90371e-09 -4.82101e-07 1.84098e-06 -3.51544 
43 1.35395e-07 -7.18135e-07 -5.10569 -5.16549 -5.16549 -9.52544 5.46526e-08 -5.69416e-07 1.98383e-06 -3.51531 
44 1.54995e-07 -6.86795e-07 -2.55248 -5.171 -5.171 -9.54109 1.05969e-07 -5.94008e-07 2.10678e-06 -3.51524 
45 0.0963567 2.16003 1.27705 -4.03207 -5.1379 -3.84149 -0.0493629 -0.44416 0.017765 -3.5291 
46 0.0702232 2.16103 3.83009 -4.03161 -5.13642 -3.83367 -0.035753 -0.444443 0.00803579 -3.5291 
47 0.0440911 2.16168 6.38332 -4.03356 -5.133 -3.81765 -0.0221193 -0.444661 -0.00201642 -3.52912 
48 0.0179688 2.16199 8.93689 -4.03796 -5.12733 -3.79255 -0.00859603 -0.444819 -0.0126738 -3.52914 
49 -0.00813506 2.16196 11.491 -4.04483 -5.11886 -3.75693 0.004665 -0.444914 -0.0242459 -3.52916 
50 -0.034212 2.16158 14.0457 -4.05409 -5.10673 -3.7087 0.0174803 -0.444935 -0.0370758 -3.5292 
51 -0.0602535 2.16086 16.6015 -4.06549 -5.08965 -3.64506 0.0296189 -0.444863 -0.0515335 -3.52924 
52 -0.0862513 2.1598 19.1584 -4.07835 -5.06567 -3.56241 0.0407846 -0.444669 -0.0679824 -3.52931 
53 -0.112198 2.1584 21.7168 -4.09122 -5.03191 -3.45641 0.0506024 -0.444315 -0.0866905 -3.52939 
54 -0.138089 2.15668 24.2772 -4.10121 -4.98414 -3.32226 0.0586207 -0.443755 -0.107634 -3.52949 
55 -0.16392 2.15467 26.84 -4.10302 -4.91642 -3.15545 0.0643583 -0.442927 -0.130131 -3.52963 
56 -0.189689 2.15244 29.4055 -4.0877 -4.82104 -2.95351 0.067449 -0.441736 -0.152329 -3.52983 
57 -0.215392 2.15007 31.9743 -4.04238 -4.68987 -2.71859 0.0679254 -0.440016 -0.170936 -3.53009 
58 -0.241009 2.14768 34.5463 -3.9535 -4.51847 -2.45977 0.0665562 -0.43749 -0.182386 -3.53044 
59 -0.266503 2.14529 37.1216 -3.81566 -4.31224 -2.19143 0.0648364 -0.433771 -0.186417 -3.53086 
60 -0.291827 2.14286 39.6996 -3.63724 -4.0859 -1.92515 0.0642605 -0.428553 -0.188155 -3.53126 
61 -0.316959 2.14028 42.2798 -3.43012 -3.85027 -1.66136 0.0654649 -0.422079 -0.193793 -3.53163 
62 -0.341951 2.13749 44.8621 -3.20062 -3.6023 -1.38885 0.0676117 -0.415178 -0.209981 -3.53192 
63 -0.367007 2.13472 47.4465 -2.91857 -3.29195 -1.10562 0.067341 -0.411207 -0.228432 -3.53223 
64 -0.392512 2.13371 50.032 -2.43836 -2.79757 -0.496602 0.0655745 -0.422075 -0.198604 -3.53322 
65 -0.418483 2.1304 52.6263 -1.76556 -2.00571 -0.561491 0.0455708 -0.308992 -0.729801 -3.52457 
66 -0.44812 2.14653 55.1778 6.97639 7.73836 2.43105 0.0329652 -0.597341 1.77032 -3.02528 
67 0.649859 2.05055 -55.162 1.3893 0.842207 -0.678872 -0.188268 -0.0992011 1.20753 -3.26036 
68 0.633027 2.08274 -52.6122 -1.11184 -2.21858 -0.457737 -0.374486 -0.48928 -0.161464 -3.53566 
69 0.607028 2.08678 -50.0319 -1.99718 -2.55532 -0.863363 -0.172387 -0.427523 0.0910217 -3.534 
70 0.581492 2.08898 -47.453 -2.63381 -3.07337 -1.19886 -0.131199 -0.400162 0.170599 -3.53289 
71 0.556829 2.09304 -44.8708 -3.05276 -3.44428 -1.36073 -0.112995 -0.395217 0.211549 -3.53224 
72 0.53231 2.09774 -42.2887 -3.34909 -3.73119 -1.58957 -0.105306 -0.399811 0.22137 -3.53182 
73 0.507646 2.10256 -39.7079 -3.58999 -3.98839 -1.83981 -0.104206 -0.406153 0.225955 -3.5314 
74 0.482755 2.10739 -37.129 -3.78935 -4.22753 -2.10317 -0.108258 -0.412072 0.228463 -3.53098 
75 0.457649 2.11225 -34.5527 -3.94415 -4.44352 -2.37267 -0.11603 -0.417113 0.226581 -3.53056 
76 0.432376 2.11713 -31.9794 -4.05035 -4.6265 -2.63629 -0.125363 -0.421507 0.217641 -3.53019 
77 0.406977 2.12201 -29.4095 -4.11148 -4.77118 -2.88035 -0.133858 -0.425499 0.201647 -3.52989 
78 0.381476 2.1268 -26.8427 -4.13811 -4.87963 -3.09476 -0.139734 -0.429109 0.181146 -3.52967 
79 0.355885 2.1314 -24.279 -4.14217 -4.95821 -3.27522 -0.142193 -0.432264 0.159106 -3.5295 
80 0.330207 2.13575 -21.7178 -4.1334 -5.01409 -3.42223 -0.141213 -0.434917 0.137666 -3.52938 
81 0.304448 2.1398 -19.1587 -4.11853 -5.05353 -3.53908 -0.137183 -0.43708 0.117953 -3.52929 
82 0.278613 2.14352 -16.6013 -4.10171 -5.08135 -3.63015 -0.130638 -0.43881 0.100355 -3.52923 
83 0.252711 2.14691 -14.0452 -4.0853 -5.10099 -3.69987 -0.122103 -0.440181 0.0848242 -3.52918 
84 0.226748 2.14995 -11.4902 -4.07053 -5.11487 -3.75219 -0.112034 -0.441266 0.0710975 -3.52915 
85 0.200736 2.15265 -8.93595 -4.05797 -5.12459 -3.79034 -0.100805 -0.442126 0.058834 -3.52912 
86 0.174681 2.15501 -6.38228 -4.04784 -5.13121 -3.81682 -0.0887116 -0.442813 0.0476838 -3.52911 
87 0.148594 2.15702 -3.82899 -4.04016 -5.1354 -3.83346 -0.0759875 -0.443363 0.0373183 -3.5291 
88 0.122483 2.1587 -1.27593 -4.03491 -5.13757 -3.84146 -0.0628197 -0.443805 0.0274376 -3.52909 
89 0.219243 4.32675 0.000553068 -3.36886 -4.74192 -3.303 -0.0697512 -0.922049 0.0467743 -3.53367 
90 0.289893 6.49914 1.27681 -2.76075 -4.34216 -2.86553 -0.0707652 -1.34897 0.0552661 -3.53384 
91 2.20913 2.73773 0.000556994 -3.3688 -3.54793 -3.05321 -0.414679 -0.319635 0.257897 -3.52985 
92 2.17584 2.76424 2.55354 -3.3582 -3.55752 -3.04977 -0.4119 -0.325748 0.250038 -3.52985 
93 2.29584 4.92898 1.27636 -2.70917 -3.57437 -2.72817 -0.340521 -0.794879 0.0215505 -3.53338 
94 4.29252 3.33767 1.27758 -3.38303 -2.90068 -2.7275 -0.494511 -0.204191 0.765875 -3.53338 
95 0.166877 4.32908 2.55338 -3.36757 -4.7424 -3.29974 -0.0528763 -0.922709 0.0283411 -3.53368 
96 0.114504 4.33071 5.10633 -3.37045 -4.74306 -3.2904 -0.0359209 -0.923348 0.00960336 -3.53368 
97 0.211216 6.5021 3.82942 -2.76187 -4.34428 -2.86063 -0.0516787 -1.35009 0.0289537 -3.53384 
98 2.23599 4.95629 3.82929 -2.7022 -3.58342 -2.72266 -0.328854 -0.797451 0.00522667 -3.53338 
99 0.132541 6.504 6.38219 -2.7678 -4.34813 -2.85116 -0.0326072 -1.3514 0.0019873 -3.53383 
100 4.25177 3.3893 3.83051 -3.37168 -2.91453 -2.7208 -0.498582 -0.219171 0.759468 -3.53338 
101 2.14219 2.79026 5.10664 -3.34979 -3.56848 -3.03951 -0.407605 -0.331975 0.241968 -3.52985 
102 2.1082 2.8158 7.66 -3.34367 -3.58068 -3.02191 -0.401736 -0.338529 0.23341 -3.52985 
103 2.17579 4.98274 6.38239 -2.69897 -3.59398 -2.71103 -0.31567 -0.800249 -0.0117407 -3.53338 
104 4.21032 3.44032 6.38362 -3.36284 -2.93114 -2.70787 -0.5007 -0.234462 0.752737 -3.53338 
105 0.062141 4.33165 7.65952 -3.37768 -4.74383 -3.2745 -0.0189992 -0.923984 -0.00987951 -3.53368 
106 0.00980595 4.33189 10.2131 -3.38951 -4.74453 -3.25113 -0.00223384 -0.924627 -0.0305827 -3.53367 
107 0.0538899 6.50483 8.93524 -2.77885 -4.35371 -2.83657 -0.0136541 -1.35294 -0.0262068 -3.53381 
108 2.11526 5.00832 8.93582 -2.69973 -3.60597 -2.69264 -0.300935 -0.803484 -0.0298258 -3.53337 
109 -0.024711 6.50458 11.4887 -2.79548 -4.36098 -2.81597 0.00506363 -1.35474 -0.0562565 -3.53379 
110 4.16817 3.4907 8.93705 -3.35668 -2.95054 -2.68804 -0.500694 -0.250438 0.745368 -3.53338 
111 2.07387 2.84083 10.2138 -3.33999 -3.594 -2.99598 -0.394167 -0.34564 0.224053 -3.52984 
112 2.0392 2.86533 12.7681 -3.33888 -3.6082 -2.96023 -0.384716 -0.353569 0.213541 -3.52983 
113 2.0544 5.03299 11.4897 -2.70484 -3.61928 -2.66646 -0.284567 -0.807391 -0.0495635 -3.53337 
114 4.12533 3.54043 11.491 -3.3534 -2.97277 -2.66026 -0.498305 -0.267514 0.736999 -3.53337 
115 -0.042484 4.33142 12.7672 -3.40629 -4.74484 -3.21887 0.0142339 -0.925276 -0.0530303 -3.53367 
116 -0.0947108 4.33023 15.3221 -3.4284 -4.74421 -3.17573 0.0302323 -0.925907 -0.0777961 -3.53366 
117 -0.103236 6.50324 14.0428 -2.81826 -4.36981 -2.788 0.0234084 -1.35684 -0.0888567 -3.53375 
118 1.99322 5.05673 14.0443 -2.71469 -3.63367 -2.63098 -0.266443 -0.812242 -0.0715626 -3.53336 
119 -0.181658 6.50081 16.5976 -2.84779 -4.37985 -2.75071 0.0412181 -1.3592 -0.124761 -3.53371 
120 4.08181 3.58946 14.0455 -3.3532 -2.99785 -2.623 -0.493187 -0.286155 0.727189 -3.53336 
121 2.00422 2.88928 15.3233 -3.3404 -3.62285 -2.91261 -0.373142 -0.362614 0.20146 -3.52981 
122 1.96891 2.91267 17.8795 -3.3444 -3.63722 -2.85045 -0.359174 -0.373113 0.187346 -3.52979 
123 1.93176 5.07951 16.5997 -2.72969 -3.64872 -2.58415 -0.246413 -0.818353 -0.0965005 -3.53334 
124 4.03761 3.63776 16.6009 -3.35619 -3.02567 -2.57428 -0.484927 -0.306893 0.715407 -3.53335 
125 -0.146856 4.32834 17.878 -3.45605 -4.74164 -3.11903 0.0455452 -0.926466 -0.105477 -3.53365 
126 -0.1989 4.32573 20.4352 -3.48909 -4.73547 -3.04532 0.0598933 -0.926858 -0.136608 -3.53365 
127 -0.259948 6.49727 19.1534 -2.88454 -4.39032 -2.70144 0.058306 -1.36173 -0.16473 -3.53365 
128 1.87001 5.10129 19.1562 -2.75007 -3.6636 -2.52331 -0.22433 -0.826076 -0.125078 -3.53332 
129 -0.338075 6.49262 21.7105 -2.92855 -4.39965 -2.63659 0.0744609 -1.36422 -0.209387 -3.53359 
130 3.99274 3.6853 19.1575 -3.3623 -3.05581 -2.51157 -0.473078 -0.33031 0.701023 -3.53334 
131 1.93329 2.93547 20.4371 -3.3503 -3.65001 -2.77044 -0.342546 -0.385414 0.170722 -3.52976 
132 1.89737 2.95767 22.9963 -3.35666 -3.65898 -2.66875 -0.323089 -0.399795 0.151205 -3.52972 
133 1.808 5.12207 21.7141 -2.77566 -3.67689 -2.44525 -0.200109 -0.83578 -0.157901 -3.5333 
134 3.94719 3.73203 21.7154 -3.37095 -3.08731 -2.43189 -0.457252 -0.356979 0.683363 -3.53331 
135 -0.250827 4.32243 22.9939 -3.5265 -4.72296 -2.95028 0.07291 -0.926957 -0.171476 -3.53364 
136 -0.302623 4.31848 25.5547 -3.56559 -4.69969 -2.82902 0.084115 -0.926624 -0.209753 -3.53365 
137 -0.416006 6.48691 24.2692 -2.97886 -4.40503 -2.55152 0.0894382 -1.36632 -0.258928 -3.53352 
138 1.74575 5.14182 24.2738 -2.80536 -3.68615 -2.34627 -0.173842 -0.847771 -0.195228 -3.53326 
139 -0.493716 6.48021 26.8299 -3.03263 -4.40156 -2.44056 0.10292 -1.36759 -0.312585 -3.53347 
140 3.90099 3.77793 24.2751 -3.3807 -3.11821 -2.33187 -0.437281 -0.387289 0.661841 -3.53328 
141 1.86117 2.97928 25.5576 -3.36051 -3.66043 -2.54135 -0.300886 -0.416255 0.128757 -3.52967 
142 1.82473 3.00034 28.1215 -3.35628 -3.64839 -2.38473 -0.276533 -0.434102 0.104178 -3.52961 
143 1.68328 5.16058 26.8357 -2.83634 -3.6874 -2.22258 -0.14601 -0.862097 -0.236486 -3.53321 
144 3.85419 3.82301 26.8369 -3.38851 -3.14489 -2.20799 -0.413491 -0.421053 0.636294 -3.53322 
145 -0.354281 4.31396 28.1179 -3.60064 -4.65888 -2.67664 0.0929146 -0.925731 -0.249895 -3.53369 
146 -0.405797 4.30902 30.6841 -3.62118 -4.59102 -2.48992 0.0987023 -0.924137 -0.288472 -3.53377 
147 -0.571184 6.47269 29.3932 -3.08368 -4.38133 -2.29764 0.114425 -1.3676 -0.367834 -3.53344 
148 1.62065 5.17848 29.4002 -2.86276 -3.67447 -2.07101 -0.11779 -0.878113 -0.2795 -3.53316 
149 -0.6484 6.46463 31.9596 -3.12064 -4.33243 -2.11809 0.123208 -1.36603 -0.419649 -3.53347 
150 3.80689 3.86732 29.4013 -3.38857 -3.16106 -2.05707 -0.387056 -0.456807 0.607593 -3.53316 
151 1.78815 3.02096 30.6883 -3.33457 -3.61406 -2.19731 -0.251457 -0.451369 0.0798176 -3.52956 
152 1.75155 3.04132 33.2584 -3.28196 -3.54617 -1.98122 -0.228053 -0.464515 0.0599554 -3.52954 
153 1.55795 5.19575 31.9677 -2.87403 -3.63825 -1.89007 -0.09135 -0.893741 -0.319618 -3.5331 
154 3.75929 3.91102 31.9688 -3.3709 -3.15662 -1.8772 -0.360284 -0.490947 0.578495 -3.53309 
155 -0.457161 4.3039 33.2536 -3.61123 -4.48469 -2.27015 0.101173 -0.921498 -0.32022 -3.53394 
156 -0.50833 4.29882 35.8266 -3.55272 -4.3309 -2.02616 0.100832 -0.916968 -0.340548 -3.5342 
157 -0.725343 6.45642 34.5294 -3.12551 -4.23926 -1.90235 0.128373 -1.3624 -0.460887 -3.53359 
158 1.49537 5.21275 34.5385 -2.85379 -3.56656 -1.68155 -0.069707 -0.904782 -0.349795 -3.53306 
159 -0.801946 6.44846 37.103 -3.07655 -4.08704 -1.66069 0.129571 -1.35537 -0.485821 -3.53386 
160 3.7117 3.95435 34.5395 -3.32016 -3.11752 -1.66954 -0.336399 -0.517622 0.554035 -3.53306 
161 1.71514 3.06165 35.8318 -3.18433 -3.43461 -1.74375 -0.209031 -0.469702 0.0491338 -3.5296 
162 1.67906 3.08205 38.4083 -3.03595 -3.27753 -1.49581 -0.195549 -0.466589 0.046924 -3.52976 
163 1.43313 5.22987 37.1128 -2.78276 -3.44653 -1.45247 -0.0555846 -0.905953 -0.364075 -3.53312 
164 3.66449 3.99762 37.1137 -3.21801 -3.02937 -1.44079 -0.318227 -0.531419 0.539382 -3.53311 
165 -0.559221 4.29383 38.4028 -3.43648 -4.13198 -1.7733 0.0993046 -0.909373 -0.350981 -3.53455 
166 -0.609747 4.28879 40.9816 -3.26981 -3.90409 -1.52417 0.0988075 -0.898185 -0.360553 -3.5349 
167 -0.87808 6.44084 39.6798 -2.96175 -3.87535 -1.41323 0.128059 -1.34311 -0.497544 -3.53423 
168 1.37149 5.24733 39.6901 -2.65014 -3.27346 -1.21482 -0.0493691 -0.895969 -0.36578 -3.53329 
169 -0.953641 6.43328 42.2589 -2.78933 -3.62452 -1.17794 0.126615 -1.32555 -0.508864 -3.53459 
170 3.61792 4.04097 39.691 -3.05405 -2.88709 -1.20339 -0.306174 -0.533584 0.533074 -3.53328 
171 1.64332 3.10245 40.9874 -2.84514 -3.08386 -1.24526 -0.185953 -0.46051 0.0452179 -3.52999 
172 1.60783 3.12272 43.5686 -2.62178 -2.86187 -0.98988 -0.177709 -0.458113 0.0356012 -3.53026 
173 1.31049 5.26498 42.2697 -2.46228 -3.05663 -0.978837 -0.0482055 -0.881344 -0.36944 -3.53353 
174 3.57193 4.08434 42.2706 -2.83561 -2.69925 -0.969159 -0.298038 -0.534035 0.52409 -3.53352 
175 -0.659897 4.28352 43.5624 -3.06373 -3.65789 -1.27844 0.100521 -0.884278 -0.377655 -3.53521 
176 -0.709864 4.27798 46.1447 -2.83007 -3.39194 -1.01658 0.10366 -0.870131 -0.407527 -3.53548 
177 -1.02869 6.42559 44.8395 -2.56634 -3.34196 -0.961822 0.126747 -1.30499 -0.524989 -3.53494 
178 1.24997 5.28266 44.851 -2.22633 -2.8011 -0.746121 -0.0502436 -0.870607 -0.386671 -3.53384 
179 -1.10363 6.4181 47.4204 -2.30012 -3.01744 -0.777336 0.12933 -1.2863 -0.5359 -3.53526 
180 3.52631 4.12763 44.8518 -2.56788 -2.4734 -0.743809 -0.291084 -0.541832 0.503696 -3.53381 
181 1.57237 3.14284 46.1515 -2.37015 -2.61449 -0.712249 -0.170315 -0.467156 0.00960874 -3.53052 
182 1.53673 3.16322 48.7363 -2.09133 -2.35854 -0.341951 -0.183414 -0.490824 -0.0293039 -3.53014 
183 1.18947 5.30039 47.4331 -1.9483 -2.50457 -0.515215 -0.063382 -0.876857 -0.430698 -3.5341 
184 3.48077 4.17092 47.4337 -2.24386 -2.21972 -0.534982 -0.285036 -0.568072 0.46045 -3.53401 
185 -0.760226 4.27323 48.7285 -2.60558 -3.07494 -0.672238 0.0968695 -0.865513 -0.410056 -3.53513 
186 -0.811621 4.26877 51.3169 -1.98816 -2.35141 0.310434 0.0839137 -0.840642 -0.653592 -3.53805 
187 -1.17889 6.41384 50.0002 -2.0628 -2.54038 -0.336767 0.0920714 -1.28844 -0.615149 -3.5357 
188 1.12775 5.31799 50.0156 -1.56832 -2.07837 -0.0189683 -0.111677 -0.952049 -0.597154 -3.53483 
189 -1.25707 6.40546 52.5877 -1.6123 -2.48691 0.643244 0.175644 -1.31599 -0.613307 -3.53282 
190 3.43505 4.21346 50.0156 -1.75686 -1.85131 -0.0334739 -0.309217 -0.673827 0.312957 -3.5349 
191 1.50027 3.18358 51.3264 -1.43146 -1.70136 0.660364 -0.172549 -0.547164 -0.133636 -3.53273 
192 1.46587 3.20964 53.9052 0.0267793 0.954081 -0.795574 0.56634 -0.560911 0.139081 -3.37565 
193 1.06597 5.33731 52.6041 -1.24904 -1.8984 0.441715 -0.236933 -0.801384 -0.410901 -3.52779 
194 3.38747 4.26008 52.6041 -1.41007 -1.71329 0.390064 -0.390753 -0.639539 0.5872 -3.52746 
195 -0.866323 4.2769 53.8949 -0.0509388 -0.206004 -1.1805 0.0793447 -1.26165 1.02745 -3.38131 
196 1.3298 4.1174 -56.3442 5.06939 2.9057 1.60245 -1.25467 -0.273901 0.110249 -2.79034 
197 -1.33605 6.40133 55.1665 4.1803 2.79732 1.29005 0.319959 -1.52315 0.197736 -3.26107 
198 1.00488 5.36129 55.1754 5.6418 6.63177 2.70761 0.369733 -0.636494 -0.0327933 -3.15047 
199 1.98371 6.26223 -55.1334 6.93978 9.11553 2.92895 0.134213 -0.84789 -0.525603 -3.02309 
200 3.34328 4.30996 55.1754 5.53061 7.35739 2.86899 0.118753 -0.278727 0.56253 -3.15115 
201 2.87095 2.09325 -56.362 4.04252 6.00648 1.88086 -3.16451 0.252581 0.341731 -2.79939 
202 2.84551 2.1252 -53.8874 0.164844 0.763183 -3.02657 -0.982169 -0.732841 -0.162391 -3.51266 
203 3.53831 4.21674 -55.1525 6.03163 6.27389 1.75944 0.30244 -1.21955 -0.0444779 -3.1433 
204 5.07312 2.13635 -55.1525 6.04996 7.03883 2.00323 0.446081 -0.528134 0.0804991 -3.14511 
205 1.29262 4.16451 -53.8815 0.861262 -0.348492 -3.67501 -0.408976 -0.573877 0.839013 -3.51412 
206 1.24176 4.17585 -51.3147 -1.28632 -1.91047 -0.36989 -0.214918 -0.880756 0.219363 -3.53903 
207 1.90264 6.26187 -52.5941 -0.917935 -1.45706 -0.573465 -0.184233 -1.1681 0.819878 -3.52791 
208 3.4607 4.22944 -52.6036 -0.748713 -0.925791 0.0957754 -0.677572 -0.49614 0.191313 -3.53019 
209 1.82403 6.27282 -50.0101 -1.63987 -2.3232 -0.256107 -0.201971 -1.2814 0.438403 -3.53674 
210 5.01221 2.17771 -52.6036 -1.34176 -0.348395 0.0549571 -0.502595 0.0191018 0.991473 -3.52952 
211 2.80522 2.14769 -51.32 -1.10329 -0.946427 -0.11121 -0.277907 -0.332986 0.261178 -3.53413 
212 2.77231 2.17485 -48.7404 -1.96402 -1.83624 -0.540805 -0.292274 -0.215469 0.349908 -3.53087 
213 3.40036 4.25787 -50.02 -1.43003 -1.65386 -0.136168 -0.408397 -0.706457 0.290915 -3.53495 
214 4.971 2.23184 -50.02 -1.84292 -1.27341 -0.11102 -0.296308 0.0243674 0.841065 -3.53498 
215 1.18968 4.18068 -48.7354 -2.17548 -2.75354 -0.777724 -0.181093 -0.848413 0.297554 -3.53641 
216 1.13982 4.18727 -46.1537 -2.6337 -3.19493 -0.968263 -0.168712 -0.832327 0.411839 -3.53602 
217 1.74857 6.27909 -47.4304 -2.09792 -2.83412 -0.666035 -0.215004 -1.24014 0.555698 -3.53587 
218 3.34504 4.28795 -47.441 -1.89501 -2.20899 -0.55604 -0.30207 -0.635243 0.344921 -3.53413 
219 1.67466 6.29126 -44.8491 -2.46708 -3.19687 -0.856967 -0.203647 -1.24402 0.61165 -3.53531 
220 4.93492 2.28494 -47.4402 -2.31717 -1.78977 -0.535774 -0.213374 0.112846 0.873591 -3.53418 
221 2.74219 2.20266 -46.1592 -2.35923 -2.27163 -0.734036 -0.234937 -0.155303 0.40209 -3.53072 
222 2.71394 2.2317 -43.5772 -2.66965 -2.59754 -0.94632 -0.22047 -0.145329 0.420914 -3.53035 
223 3.2916 4.32053 -44.8602 -2.23031 -2.57835 -0.711173 -0.263016 -0.622182 0.378987 -3.5339 
224 4.90216 2.33841 -44.8593 -2.65161 -2.14862 -0.717311 -0.181066 0.149165 0.903762 -3.53391 
225 1.09071 4.19619 -43.5716 -2.97051 -3.51808 -1.19725 -0.157661 -0.840696 0.434832 -3.53551 
226 1.0415 4.20572 -40.9903 -3.22786 -3.79513 -1.43872 -0.155886 -0.854238 0.4395 -3.53507 
227 1.60095 6.30505 -42.2678 -2.7479 -3.50588 -1.0851 -0.203564 -1.26209 0.625078 -3.53481 
228 3.23908 4.35451 -42.279 -2.50229 -2.8778 -0.911598 -0.246886 -0.625478 0.395288 -3.53358 
229 1.52677 6.31943 -39.6878 -2.95658 -3.77488 -1.32921 -0.21033 -1.28153 0.62696 -3.53436 
230 4.87091 2.3927 -42.2782 -2.93338 -2.4336 -0.92402 -0.171517 0.159783 0.92802 -3.53358 
231 2.6862 2.26139 -40.9959 -2.92326 -2.86155 -1.17735 -0.218675 -0.144462 0.433726 -3.53004 
232 2.65853 2.2916 -38.4161 -3.13424 -3.07896 -1.42016 -0.223884 -0.144614 0.44433 -3.52979 
233 3.18678 4.38947 -39.6989 -2.7176 -3.12043 -1.13584 -0.241846 -0.631159 0.404513 -3.53331 
234 4.84022 2.44791 -39.698 -3.16829 -2.6539 -1.14887 -0.172799 0.163675 0.949028 -3.53331 
235 0.991875 4.21543 -38.4106 -3.42465 -4.04101 -1.68978 -0.160759 -0.867166 0.439147 -3.53467 
236 0.941817 4.22528 -35.8333 -3.56264 -4.25262 -1.94543 -0.169702 -0.877699 0.432799 -3.53429 
237 1.45196 6.33425 -37.1099 -3.09643 -3.9999 -1.58136 -0.220469 -1.29775 0.620543 -3.53396 
238 3.13446 4.42531 -37.1207 -2.87681 -3.3065 -1.37005 -0.24522 -0.638133 0.405805 -3.53313 
239 1.37657 6.34952 -34.5352 -3.16844 -4.16996 -1.82813 -0.229941 -1.31033 0.600853 -3.53365 
240 4.80982 2.50404 -37.1198 -3.35361 -2.81251 -1.38249 -0.183327 0.162698 0.96242 -3.53313 
241 2.63085 2.32231 -35.8386 -3.30172 -3.25012 -1.66715 -0.235688 -0.14721 0.449468 -3.52962 
242 2.60314 2.35345 -33.264 -3.4213 -3.37269 -1.90809 -0.25399 -0.15558 0.445298 -3.52953 
243 3.08204 4.46193 -34.5454 -2.9779 -3.43461 -1.60067 -0.256469 -0.649707 0.393931 -3.53304 
244 4.77963 2.56097 -34.5445 -3.48418 -2.91136 -1.61285 -0.203347 0.15186 0.963157 -3.53305 
245 0.891399 4.23531 -33.2591 -3.6414 -4.42103 -2.19441 -0.179566 -0.886068 0.416382 -3.534 
246 0.840707 4.24542 -30.6884 -3.6686 -4.54345 -2.42323 -0.187519 -0.893078 0.388828 -3.5338 
247 1.30073 6.36513 -31.964 -3.18273 -4.28308 -2.05342 -0.235885 -1.32035 0.565547 -3.53347 
248 3.02943 4.49906 -31.9734 -3.02577 -3.51183 -1.81513 -0.274022 -0.66686 0.367736 -3.53305 
249 1.22451 6.38075 -29.3963 -3.15732 -4.34894 -2.24626 -0.237429 -1.32835 0.518139 -3.53341 
250 4.7495 2.61844 -31.9724 -3.56265 -2.95972 -1.82775 -0.231387 0.128718 0.951125 -3.53305 
251 2.57534 2.38484 -30.6927 -3.49465 -3.45074 -2.13178 -0.277116 -0.170358 0.43162 -3.52952 
252 2.54732 2.41626 -28.1247 -3.53047 -3.49466 -2.32983 -0.302229 -0.189189 0.411764 -3.52956 
253 2.97646 4.53629 -29.4048 -3.03305 -3.55207 -2.00519 -0.294993 -0.687182 0.331713 -3.5331 
254 4.71915 2.67612 -29.4037 -3.59962 -2.97281 -2.0186 -0.264146 0.0960427 0.93077 -3.5331 
255 0.78979 4.25543 -28.1209 -3.65916 -4.62572 -2.62227 -0.191902 -0.899139 0.35325 -3.53368 
256 0.738668 4.26512 -25.5566 -3.62839 -4.67754 -2.78797 -0.19224 -0.904255 0.314183 -3.53362 
257 1.14793 6.396 -26.8319 -3.1098 -4.38123 -2.40337 -0.234864 -1.33431 0.464671 -3.53341 
258 2.92299 4.57324 -26.8393 -3.01406 -3.56896 -2.16753 -0.316224 -0.707652 0.291827 -3.53316 
259 1.07101 6.41057 -24.2702 -3.05345 -4.39229 -2.52706 -0.228745 -1.33839 0.410468 -3.53346 
260 4.68828 2.73373 -26.8381 -3.60765 -2.96523 -2.18139 -0.298063 0.0587259 0.907052 -3.53315 
261 2.51894 2.44753 -25.5598 -3.53988 -3.516 -2.49828 -0.326667 -0.209146 0.389656 -3.52961 
262 2.49011 2.4785 -22.9976 -3.53275 -3.52421 -2.63707 -0.348655 -0.228143 0.368074 -3.52967 
263 2.8689 4.60964 -24.2765 -2.98068 -3.57271 -2.30232 -0.335246 -0.726194 0.252552 -3.53322 
264 4.65668 2.79108 -24.2753 -3.59751 -2.94792 -2.31587 -0.330538 0.0210276 0.883476 -3.53321 
265 0.687348 4.27433 -22.995 -3.58808 -4.70835 -2.92154 -0.188777 -0.908381 0.275335 -3.5336 
266 0.635843 4.28294 -20.4355 -3.54591 -4.72565 -3.02671 -0.182057 -0.911594 0.23892 -3.5336 
267 0.993787 6.42425 -21.7108 -2.99678 -4.39129 -2.62225 -0.219609 -1.34099 0.358938 -3.53352 
268 2.81416 4.64534 -21.7161 -2.94132 -3.57008 -2.4117 -0.350641 -0.741861 0.216323 -3.53326 
269 0.916282 6.43691 -19.1533 -2.94454 -4.38434 -2.69443 -0.207962 -1.34259 0.311697 -3.53359 
270 4.62421 2.84804 -21.7148 -3.57718 -2.92796 -2.4242 -0.360142 -0.0143721 0.861964 -3.53325 
271 2.46077 2.50909 -20.4376 -3.5164 -3.52581 -2.74859 -0.367335 -0.245127 0.348451 -3.52971 
272 2.43093 2.53925 -17.8795 -3.49571 -3.52489 -2.8364 -0.382512 -0.259793 0.331265 -3.52975 
273 2.75877 4.68023 -19.1576 -2.90123 -3.56515 -2.49878 -0.3619 -0.754518 0.184036 -3.53329 
274 4.59082 2.90455 -19.1563 -3.55204 -2.90943 -2.50974 -0.386326 -0.0462414 0.843282 -3.53328 
275 0.584168 4.29088 -17.8779 -3.50622 -4.73475 -3.10809 -0.172686 -0.91406 0.205881 -3.53361 
276 0.53234 4.29812 -15.3217 -3.47115 -4.73913 -3.17014 -0.161225 -0.915962 0.176338 -3.53362 
277 0.83853 6.4485 -16.5971 -2.89893 -4.37519 -2.74857 -0.194283 -1.34362 0.269127 -3.53365 
278 2.70273 4.71428 -16.6006 -2.86337 -3.56026 -2.56695 -0.369106 -0.764466 0.155685 -3.53332 
279 0.760564 6.45899 -14.0421 -2.86059 -4.36595 -2.78877 -0.17901 -1.34438 0.230916 -3.5337 
280 4.5565 2.96056 -16.5994 -3.5254 -2.89438 -2.57615 -0.409066 -0.074331 0.827501 -3.53331 
281 2.40059 2.56897 -15.3229 -3.47367 -3.52376 -2.90432 -0.394362 -0.272261 0.316455 -3.52978 
282 2.36976 2.59823 -12.7675 -3.452 -3.52365 -2.95588 -0.403231 -0.282844 0.303716 -3.5298 
283 2.6461 4.74747 -14.0449 -2.82917 -3.55662 -2.61944 -0.372639 -0.772178 0.130821 -3.53334 
284 4.52126 3.01605 -14.0437 -3.4992 -2.88361 -2.62686 -0.428591 -0.0989372 0.814329 -3.53333 
285 0.480379 4.30466 -12.7665 -3.44146 -4.74097 -3.21672 -0.148153 -0.917461 0.14996 -3.53363 
286 0.428304 4.31048 -10.2122 -3.41724 -4.74155 -3.25095 -0.13386 -0.918677 0.126229 -3.53365 
287 0.682414 6.46838 -11.4879 -2.82935 -4.35774 -2.81819 -0.162522 -1.34503 0.196432 -3.53375 
288 2.58891 4.77982 -11.4902 -2.79918 -3.55479 -2.65905 -0.372978 -0.778145 0.108829 -3.53335 
289 0.60411 6.47668 -8.93429 -2.80468 -4.35109 -2.83919 -0.145132 -1.34568 0.164941 -3.53378 
290 4.48515 3.07101 -11.4889 -3.47447 -2.87722 -2.66482 -0.445224 -0.120597 0.803329 -3.53335 
291 2.33847 2.62705 -10.2129 -3.43161 -3.52509 -2.99411 -0.409503 -0.291913 0.292657 -3.52982 
292 2.30674 2.6554 -7.65902 -3.41296 -3.52828 -3.0214 -0.413531 -0.299826 0.282886 -3.52983 
293 2.53121 4.81133 -8.93614 -2.77342 -3.55495 -2.68812 -0.37059 -0.782807 0.0890767 -3.53336 
294 4.44819 3.12544 -8.93491 -3.45172 -2.87498 -2.69239 -0.459292 -0.139908 0.794032 -3.53336 
295 0.376135 4.3156 -7.65852 -3.39821 -4.74163 -3.2752 -0.118656 -0.919693 0.104572 -3.53366 
296 0.32389 4.32001 -5.10527 -3.384 -4.7416 -3.29125 -0.102782 -0.920569 0.0844412 -3.53366 
297 0.525679 6.48389 -6.38118 -2.78596 -4.3462 -2.85347 -0.127087 -1.34638 0.135719 -3.53381 
298 2.47301 4.84199 -6.38262 -2.75173 -3.55708 -2.70845 -0.365875 -0.786534 0.0709751 -3.53337 
299 0.447149 6.49004 -3.82837 -2.77265 -4.34309 -2.86218 -0.108583 -1.34714 0.108098 -3.53383 
300 4.41042 3.17933 -6.3814 -3.43114 -2.87653 -2.71136 -0.471073 -0.157442 0.786002 -3.53337 
301 2.2746 2.68331 -5.10558 -3.39622 -3.5332 -3.03958 -0.415603 -0.306905 0.274044 -3.52984 
302 2.24206 2.71075 -2.55243 -3.38149 -3.53979 -3.04992 -0.415938 -0.313427 0.26581 -3.52985 
303 2.41437 4.87182 -3.82946 -2.7339 -3.5611 -2.72137 -0.35915 -0.789627 0.0539957 -3.53337 
304 4.37186 3.23268 -3.82824 -3.41282 -2.88151 -2.72304 -0.480787 -0.17371 0.778851 -3.53337 
305 0.271587 4.32373 -2.55229 -3.3743 -4.74166 -3.30027 -0.0864294 -0.921344 0.0653295 -3.53367 
306 0.368545 6.49512 -1.27575 -2.76432 -4.34176 -2.86607 -0.0897679 -1.348 0.0814677 -3.53384 
307 2.3553 4.90082 -1.27651 -2.71974 -3.5669 -2.72778 -0.350648 -0.792337 0.037666 -3.53338 
308 4.33256 3.28546 -1.2753 -3.39677 -2.88963 -2.72828 -0.488577 -0.189161 0.772242 -3.53338 
309 2.44089 7.09298 -5.27242e-06 -2.20232 -3.36319 -2.39717 -0.311 -1.19761 -0.179542 -3.53293 