ITEM: TIMESTEP
212
ITEM: NUMBER OF ATOMS
37664
ITEM: BOX BOUNDS ff ff ff
-100 100
-100 100
-156.15 156.15
ITEM: ATOMS id x y z v_peratom_sxx v_peratom_syy v_peratom_szz v_peratom_sxy v_peratom_sxz v_peratom_syz c_atomPE 
1 -0.00340628 -0.00164047 -0.000380141 -5.18107 -5.16876 -9.54261 0.000458296 -0.00834243 -0.0463953 -3.51524 
2 -0.00363764 -0.00137866 2.55279 -5.1789 -5.16739 -9.53882 -0.00062625 -0.00692546 -0.0457027 -3.51526 
3 -0.00385104 -0.00109945 5.10607 -5.17231 -5.16198 -9.52489 -0.00181427 -0.00480482 -0.0448127 -3.51532 
4 -0.00404311 -0.000806419 7.65961 -5.16079 -5.1521 -9.49982 -0.0030768 -0.00185849 -0.0437018 -3.51544 
5 -0.00420667 -0.000505164 10.2136 -5.14357 -5.13699 -9.46197 -0.00434751 0.00187127 -0.0422949 -3.51561 
6 -0.0043321 -0.00020208 12.7681 -5.11962 -5.11551 -9.40903 -0.00553914 0.00616289 -0.0405029 -3.51586 
7 -0.0044096 9.67589e-05 15.3235 -5.08749 -5.08605 -9.33796 -0.00656843 0.0106717 -0.038272 -3.51619 
8 -0.00443153 0.000386046 17.88 -5.0451 -5.04633 -9.2448 -0.00737533 0.0150223 -0.0356193 -3.51661 
9 -0.00439372 0.000660948 20.4379 -4.98945 -4.9932 -9.12464 -0.00793056 0.0188935 -0.032641 -3.51716 
10 -0.00429554 0.000916385 22.9975 -4.91646 -4.92243 -8.97175 -0.00823359 0.022072 -0.0295018 -3.51785 
11 -0.00413926 0.00114631 25.5594 -4.82074 -4.82856 -8.78026 -0.00830646 0.0244708 -0.0264117 -3.5187 
12 -0.00392871 0.00134327 28.1238 -4.69594 -4.70518 -8.54585 -0.00818693 0.0261189 -0.023596 -3.51973 
13 -0.00366813 0.00149843 30.6913 -4.53619 -4.54643 -8.26887 -0.00792114 0.0271325 -0.0212607 -3.52092 
14 -0.00336111 0.00160188 33.262 -4.33991 -4.35076 -7.95802 -0.00755452 0.0276751 -0.0195576 -3.52221 
15 -0.00300984 0.00164298 35.8359 -4.11496 -4.12604 -7.63078 -0.00712222 0.0279203 -0.0185689 -3.52348 
16 -0.00261465 0.00161038 38.4126 -3.87737 -3.88834 -7.30546 -0.00664244 0.0280181 -0.0183113 -3.52458 
17 -0.00217337 0.00149113 40.9918 -3.63872 -3.64928 -6.98851 -0.00611157 0.0280788 -0.0187703 -3.52547 
18 -0.00167841 0.00126801 43.5732 -3.39999 -3.40981 -6.66712 -0.0054892 0.0282437 -0.0199715 -3.52619 
19 -0.00111203 0.000914816 46.157 -3.13608 -3.14453 -6.30445 -0.00463485 0.0286848 -0.0219898 -3.52694 
20 -0.000454421 0.000391565 48.7436 -2.75364 -2.75836 -5.86493 -0.00261797 0.0286954 -0.0247377 -3.52781 
21 5.95933e-07 -4.11185e-08 51.3317 -1.92316 -1.92279 -4.92074 0.000200647 -0.00147503 0.00131234 -3.53204 
22 4.01304e-07 -1.42881e-06 53.9138 -0.851958 -0.851971 -8.91783 -1.48384e-06 -2.99169e-05 -7.30445e-05 -3.48168 
23 8.71386e-07 -1.98378e-06 56.3885 1.68558 1.68558 1.87682 -1.78631e-05 2.64499e-05 -1.2542e-07 -2.55581 
24 -1.23087e-07 -1.12453e-06 -53.8876 -2.60687 -2.60689 -6.54957 -1.49392e-05 6.37748e-06 -3.48935e-05 -3.40183 
25 1.02659e-07 -1.55837e-06 -51.3239 -2.07937 -2.0795 -5.58139 -0.000524134 0.000473728 0.00245728 -3.52873 
26 -0.000101704 -0.000692157 -48.7463 -2.69883 -2.69653 -6.15457 0.00688443 -0.00658583 -0.0432812 -3.52637 
27 -0.000206641 -0.00164096 -46.1647 -3.02659 -3.02242 -6.35621 0.0122454 -0.00426832 -0.0396821 -3.52675 
28 -0.0002575 -0.00233655 -43.5824 -3.30822 -3.3022 -6.61694 0.0137066 -0.000502465 -0.0364726 -3.52631 
29 -0.000255186 -0.00283882 -41.0011 -3.56383 -3.55569 -6.90492 0.0140482 0.00293861 -0.0340016 -3.52571 
30 -0.000223915 -0.00318765 -38.4214 -3.81412 -3.80383 -7.21285 0.0137366 0.00562019 -0.0321687 -3.52488 
31 -0.000189524 -0.00340988 -35.8439 -4.06037 -4.04809 -7.53687 0.0129844 0.00720952 -0.0309586 -3.52382 
32 -0.000176986 -0.00352744 -33.2691 -4.29329 -4.27933 -7.86603 0.0119582 0.00746715 -0.0304556 -3.52259 
33 -0.000208118 -0.00356084 -30.6974 -4.49993 -4.48472 -8.18295 0.0108149 0.00634593 -0.030745 -3.52131 
34 -0.000298726 -0.00352947 -28.129 -4.67183 -4.65585 -8.47065 0.0096864 0.00404407 -0.0318391 -3.52009 
35 -0.000456247 -0.00345059 -25.5635 -4.80802 -4.7917 -8.71869 0.00865833 0.000975675 -0.0336383 -3.51901 
36 -0.00067882 -0.00333821 -23.0008 -4.91248 -4.89618 -8.92412 0.00776103 -0.00233053 -0.0359323 -3.5181 
37 -0.000956191 -0.00320249 -20.4405 -4.99102 -4.975 -9.08931 0.00697632 -0.00536883 -0.0384466 -3.51735 
38 -0.00127239 -0.00304994 -17.8821 -5.04937 -5.03378 -9.21925 0.00625671 -0.00777271 -0.0409044 -3.51676 
39 -0.00160933 -0.00288429 -15.3252 -5.09237 -5.07727 -9.31965 0.00554961 -0.00937686 -0.0430779 -3.5163 
40 -0.00195015 -0.0027074 -12.7695 -5.12381 -5.1092 -9.39585 0.00481666 -0.0102131 -0.0448153 -3.51594 
41 -0.00228165 -0.00251988 -10.2147 -5.1465 -5.13236 -9.45243 0.00404104 -0.0104475 -0.0460445 -3.51568 
42 -0.00259529 -0.00232126 -7.66056 -5.16246 -5.14875 -9.49305 0.00322162 -0.0102856 -0.0467602 -3.51548 
43 -0.00288709 -0.00211003 -5.10691 -5.17305 -5.15975 -9.52047 0.00235946 -0.00987882 -0.0470054 -3.51535 
44 -0.00315679 -0.00188386 -2.55357 -5.17912 -5.16626 -9.53662 0.00144557 -0.00926302 -0.0468547 -3.51528 
45 0.0927293 2.1586 1.27494 -4.05293 -5.13326 -3.83752 -0.0521062 -0.443502 -0.00464413 -3.52909 
46 0.0662549 2.15985 3.8281 -4.04899 -5.13318 -3.82978 -0.0406146 -0.442897 -0.0140564 -3.5291 
47 0.0398041 2.16076 6.38144 -4.0466 -5.13115 -3.8137 -0.0289614 -0.441702 -0.0237058 -3.52912 
48 0.0134002 2.16135 8.93512 -4.04615 -5.12685 -3.78834 -0.017106 -0.439999 -0.0338031 -3.52914 
49 -0.012933 2.16159 11.4893 -4.04812 -5.11976 -3.75226 -0.00507283 -0.437977 -0.0445802 -3.52918 
50 -0.0391737 2.16148 14.0442 -4.05285 -5.109 -3.70348 0.00700266 -0.435858 -0.0563332 -3.52922 
51 -0.0653051 2.16101 16.6001 -4.06034 -5.0932 -3.63928 0.0188604 -0.433828 -0.0694367 -3.52927 
52 -0.0913159 2.1602 19.1571 -4.07003 -5.07037 -3.5562 0.0301253 -0.432001 -0.0843114 -3.52933 
53 -0.117201 2.15903 21.7158 -4.08043 -5.03757 -3.45 0.0403248 -0.430403 -0.101324 -3.52941 
54 -0.142958 2.15753 24.2763 -4.08854 -4.99058 -3.31594 0.0489146 -0.428979 -0.120576 -3.52952 
55 -0.168591 2.15572 26.8392 -4.08896 -4.92343 -3.14959 0.0553394 -0.427604 -0.141523 -3.52966 
56 -0.194103 2.15366 29.4049 -4.07267 -4.82845 -2.94848 0.0591807 -0.426083 -0.162444 -3.52985 
57 -0.219493 2.15142 31.9738 -4.02677 -4.69756 -2.71473 0.0604403 -0.424147 -0.180163 -3.53012 
58 -0.244742 2.1491 34.546 -3.9378 -4.52637 -2.45731 0.0598715 -0.421429 -0.191193 -3.53047 
59 -0.269814 2.14673 37.1213 -3.80043 -4.32027 -2.19041 0.0589647 -0.417482 -0.195298 -3.53088 
60 -0.294659 2.14424 39.6994 -3.62308 -4.09388 -1.92542 0.0592235 -0.411958 -0.197588 -3.53128 
61 -0.319248 2.14151 42.2797 -3.41774 -3.85786 -1.66252 0.06132 -0.405042 -0.204255 -3.53165 
62 -0.343615 2.13847 44.862 -3.19104 -3.60891 -1.39004 0.0645015 -0.397315 -0.222045 -3.53193 
63 -0.367915 2.1353 47.4464 -2.91353 -3.29695 -1.10406 0.0655552 -0.390934 -0.243138 -3.53223 
64 -0.392512 2.13371 50.032 -2.43046 -2.80165 -0.491026 0.0607388 -0.411384 -0.208393 -3.53325 
65 -0.418483 2.1304 52.6263 -1.7658 -2.00548 -0.561383 0.0454783 -0.308958 -0.729961 -3.52457 
66 -0.44812 2.14653 55.1778 6.97662 7.73844 2.43088 0.033023 -0.597318 1.7702 -3.02528 
67 0.649859 2.05055 -55.162 1.38946 0.84241 -0.678307 -0.188251 -0.0991964 1.20762 -3.26036 
68 0.633027 2.08274 -52.6122 -1.11203 -2.21873 -0.457739 -0.374498 -0.489288 -0.161414 -3.53567 
69 0.607028 2.08678 -50.0319 -2.00615 -2.55816 -0.879401 -0.166826 -0.426962 0.074611 -3.53397 
70 0.581544 2.08791 -47.4534 -2.64147 -3.07432 -1.21676 -0.123108 -0.397501 0.144991 -3.5329 
71 0.556927 2.09118 -44.8715 -3.06384 -3.44387 -1.37516 -0.100353 -0.392351 0.190346 -3.53225 
72 0.532465 2.0953 -42.2897 -3.3638 -3.72938 -1.60367 -0.0903327 -0.396334 0.203235 -3.53182 
73 0.50787 2.09972 -39.7091 -3.60847 -3.98528 -1.85385 -0.0881915 -0.402148 0.210087 -3.5314 
74 0.483043 2.10428 -37.1305 -3.81165 -4.22307 -2.11681 -0.0919773 -0.407821 0.214177 -3.53096 
75 0.457976 2.10898 -34.5544 -3.9701 -4.43763 -2.38542 -0.0999961 -0.412955 0.213196 -3.53054 
76 0.432697 2.1138 -31.9814 -4.07947 -4.61916 -2.64768 -0.109931 -0.417768 0.204473 -3.53016 
77 0.407232 2.11869 -29.4117 -4.14302 -4.76246 -2.89001 -0.119271 -0.422421 0.188047 -3.52986 
78 0.381595 2.12353 -26.8451 -4.17105 -4.86968 -3.10247 -0.126151 -0.426809 0.16656 -3.52964 
79 0.355795 2.12822 -24.2815 -4.17547 -4.94725 -3.28089 -0.129714 -0.430718 0.143149 -3.52948 
80 0.329844 2.13269 -21.7204 -4.16617 -5.00241 -3.42589 -0.129898 -0.433989 0.120152 -3.52936 
81 0.30376 2.13687 -19.1613 -4.15015 -5.04146 -3.54087 -0.127079 -0.436573 0.0988976 -3.52927 
82 0.277567 2.14074 -16.6039 -4.13193 -5.06926 -3.63027 -0.121789 -0.438523 0.0799327 -3.52921 
83 0.251288 2.14428 -14.0479 -4.11417 -5.08926 -3.69858 -0.114564 -0.439963 0.0633104 -3.52916 
84 0.224945 2.14749 -11.4928 -4.09828 -5.10384 -3.74975 -0.105878 -0.441047 0.0488145 -3.52913 
85 0.198555 2.15037 -8.9385 -4.08484 -5.11455 -3.78705 -0.0961256 -0.441914 0.0361019 -3.52911 
86 0.17213 2.15292 -6.38474 -4.07388 -5.12238 -3.813 -0.0856395 -0.442643 0.0247828 -3.52909 
87 0.145678 2.15513 -3.83134 -4.06516 -5.12793 -3.8294 -0.0746887 -0.443227 0.0144631 -3.52909 
88 0.119208 2.15703 -1.27816 -4.05828 -5.13151 -3.83739 -0.0634728 -0.443565 0.00476681 -3.52908 
89 0.215567 4.3253 -0.0023783 -3.38907 -4.73763 -3.29926 -0.0748093 -0.921858 0.0353344 -3.53367 
90 0.285569 6.49785 1.27342 -2.77168 -4.34027 -2.8614 -0.0795216 -1.34813 0.0493503 -3.53385 
91 2.20538 2.73612 -0.00137762 -3.38846 -3.53945 -3.0523 -0.41811 -0.324567 0.245644 -3.52984 
92 2.17175 2.76285 2.55173 -3.37488 -3.55001 -3.05003 -0.417208 -0.33001 0.238104 -3.52984 
93 2.29163 4.92752 1.27394 -2.72315 -3.56755 -2.73052 -0.34687 -0.796823 0.0135524 -3.53337 
94 4.28833 3.33607 1.27587 -3.3998 -2.8952 -2.72783 -0.499284 -0.208547 0.75837 -3.53337 
95 0.162741 4.32784 2.55056 -3.3826 -4.73963 -3.29552 -0.0599225 -0.921681 0.01702 -3.53368 
96 0.109934 4.3297 5.10361 -3.37967 -4.7418 -3.28558 -0.0446467 -0.920906 -0.00155455 -3.53369 
97 0.206376 6.50098 3.82613 -2.76651 -4.3441 -2.85566 -0.0613968 -1.34791 0.0231948 -3.53386 
98 2.23137 4.95501 3.82697 -2.71175 -3.57806 -2.72538 -0.33639 -0.798498 -0.00225953 -3.53337 
99 0.12724 6.50305 6.37901 -2.76654 -4.34963 -2.84529 -0.0427987 -1.34751 -0.00353984 -3.53385 
100 4.24726 3.38789 3.82893 -3.38539 -2.9103 -2.72186 -0.504693 -0.222858 0.752274 -3.53337 
101 2.13778 2.78911 5.10496 -3.36281 -3.56208 -3.04093 -0.414625 -0.335243 0.230526 -3.52984 
102 2.1035 2.81488 7.65846 -3.35262 -3.5756 -3.02437 -0.41013 -0.340466 0.222683 -3.52983 
103 2.17079 4.98165 6.3802 -2.70389 -3.59024 -2.71394 -0.324 -0.800035 -0.0184801 -3.53337 
104 4.20552 3.4391 6.38218 -3.37316 -2.92826 -2.70964 -0.507893 -0.237248 0.745943 -3.53337 
105 0.0571857 4.33086 7.65692 -3.38104 -4.74408 -3.26894 -0.0289356 -0.919701 -0.0207621 -3.53369 
106 0.00453319 4.33132 10.2106 -3.38756 -4.74631 -3.24475 -0.012842 -0.918316 -0.0410147 -3.5337 
107 0.0482069 6.50405 8.9322 -2.77266 -4.35688 -2.82982 -0.0238332 -1.34722 -0.0313844 -3.53384 
108 2.10994 5.0074 8.93375 -2.70027 -3.60396 -2.69553 -0.309615 -0.801743 -0.0355735 -3.53337 
109 -0.0306814 6.50398 11.4858 -2.78565 -4.36576 -2.80842 -0.00469947 -1.3473 -0.0609468 -3.53382 
110 4.16314 3.4897 8.93576 -3.36352 -2.94907 -2.69044 -0.508633 -0.252097 0.739105 -3.53336 
111 2.06894 2.84014 10.2124 -3.34478 -3.59043 -2.99925 -0.403492 -0.345963 0.214292 -3.52982 
112 2.03411 2.86487 12.7669 -3.33974 -3.60627 -2.96406 -0.394504 -0.352106 0.204985 -3.52981 
113 2.04884 5.03226 11.4878 -2.70157 -3.61905 -2.66912 -0.293185 -0.804008 -0.0541042 -3.53336 
114 4.12013 3.53963 11.4898 -3.35688 -2.97275 -2.66317 -0.506635 -0.267861 0.731416 -3.53336 
115 -0.0479912 4.33107 12.7649 -3.39997 -4.74813 -3.21171 0.0034659 -0.91699 -0.0628035 -3.5337 
116 -0.100362 4.33011 15.32 -3.41878 -4.74892 -3.1679 0.0197216 -0.915884 -0.08671 -3.53369 
117 -0.109393 6.50282 14.0401 -2.80608 -4.3761 -2.7798 0.0143433 -1.34791 -0.0929295 -3.53378 
118 1.98751 5.05619 14.0425 -2.70839 -3.63518 -2.63325 -0.274679 -0.807251 -0.0747421 -3.53335 
119 -0.1879 6.50056 16.5951 -2.83437 -4.38744 -2.74205 0.0330096 -1.34911 -0.128116 -3.53374 
120 4.07651 3.58888 14.0445 -3.35364 -2.99926 -2.62629 -0.50159 -0.285083 0.72243 -3.53335 
121 1.99903 2.88906 15.3222 -3.33775 -3.62261 -2.91677 -0.382978 -0.35933 0.194298 -3.5298 
122 1.9637 2.91267 17.8786 -3.33879 -3.63859 -2.85475 -0.368734 -0.368095 0.181691 -3.52977 
123 1.92597 5.07916 16.5981 -2.72111 -3.65181 -2.58593 -0.254056 -0.811899 -0.098242 -3.53334 
124 4.03227 3.6374 16.6001 -3.35397 -3.0284 -2.57783 -0.493148 -0.30438 0.711581 -3.53334 
125 -0.152559 4.32843 17.8761 -3.44413 -4.74761 -3.11073 0.0355864 -0.915046 -0.113373 -3.53368 
126 -0.204569 4.32603 20.4334 -3.47565 -4.74248 -3.03678 0.0506639 -0.914412 -0.143398 -3.53368 
127 -0.26618 6.4972 19.1511 -2.87064 -4.39893 -2.69254 0.0510126 -1.3508 -0.167309 -3.53368 
128 1.86423 5.10115 19.1548 -2.73986 -3.66805 -2.52462 -0.231273 -0.818373 -0.125385 -3.53332 
129 -0.344211 6.49274 21.7085 -2.91454 -4.40897 -2.62768 0.0680766 -1.35271 -0.211184 -3.53362 
130 3.98743 3.68516 19.1568 -3.35779 -3.05971 -2.51532 -0.480943 -0.326411 0.698193 -3.53333 
131 1.92814 2.9357 20.4363 -3.34224 -3.65282 -2.7748 -0.351615 -0.378842 0.166595 -3.52974 
132 1.89234 2.95812 22.9957 -3.3466 -3.66299 -2.67319 -0.331545 -0.391897 0.148531 -3.52971 
133 1.80232 5.12212 21.7129 -2.76425 -3.68239 -2.44615 -0.206326 -0.827054 -0.156851 -3.5333 
134 3.94199 3.73211 21.7149 -3.36447 -3.09214 -2.43582 -0.464662 -0.351806 0.681527 -3.53331 
135 -0.256381 4.32293 22.9924 -3.51204 -4.73071 -2.94181 0.0644956 -0.913814 -0.177153 -3.53367 
136 -0.307991 4.31917 25.5534 -3.55034 -4.70787 -2.82094 0.0765417 -0.913027 -0.214399 -3.53368 
137 -0.42197 6.48721 24.2675 -2.96478 -4.41467 -2.54284 0.0839271 -1.35441 -0.259992 -3.53355 
138 1.74023 5.14207 24.2728 -2.79299 -3.69235 -2.34692 -0.179359 -0.838223 -0.192963 -3.53326 
139 -0.499436 6.48069 26.8285 -3.01828 -4.41111 -2.43239 0.098243 -1.35534 -0.313022 -3.53349 
140 3.89597 3.77823 24.2747 -3.37249 -3.1237 -2.33602 -0.444191 -0.380984 0.660927 -3.53327 
141 1.85633 2.97994 25.5572 -3.3488 -3.66532 -2.54595 -0.30868 -0.407271 0.12737 -3.52966 
142 1.82014 3.00119 28.1212 -3.3432 -3.65387 -2.38968 -0.283654 -0.424258 0.103822 -3.5296 
143 1.678 5.16104 26.8349 -2.82307 -3.69393 -2.2232 -0.150871 -0.851874 -0.233209 -3.53322 
144 3.84941 3.82352 26.8367 -3.3787 -3.15074 -2.21245 -0.419888 -0.413768 0.636158 -3.53322 
145 -0.359395 4.31483 28.1169 -3.58465 -4.66719 -2.66929 0.0861799 -0.911811 -0.253686 -3.53372 
146 -0.410596 4.31004 30.6833 -3.6045 -4.59921 -2.48364 0.0927998 -0.909916 -0.291673 -3.5338 
147 -0.576592 6.47334 29.3921 -3.06883 -4.39041 -2.29029 0.110554 -1.35496 -0.367817 -3.53346 
148 1.61567 5.17912 29.3995 -2.8486 -3.68098 -2.07183 -0.122031 -0.867306 -0.275477 -3.53316 
149 -0.653427 6.46542 31.9587 -3.10517 -4.34078 -2.11187 0.120128 -1.3529 -0.419435 -3.53349 
150 3.80241 3.86802 29.4013 -3.37733 -3.16697 -2.06197 -0.392926 -0.448696 0.608012 -3.53316 
151 1.78386 3.02198 30.6881 -3.32041 -3.61983 -2.20277 -0.257904 -0.440865 0.0801558 -3.52956 
152 1.74762 3.04247 33.2583 -3.26711 -3.55205 -1.98734 -0.23381 -0.453539 0.0605829 -3.52954 
153 1.55334 5.19654 31.9672 -2.85905 -3.64447 -1.89129 -0.0949744 -0.882403 -0.315185 -3.5331 
154 3.75516 3.91188 31.9688 -3.35843 -3.16236 -1.88268 -0.365595 -0.48217 0.579169 -3.5331 
155 -0.461582 4.30504 33.253 -3.59404 -4.49262 -2.26519 0.096106 -0.906921 -0.323183 -3.53396 
156 -0.51231 4.30001 35.8261 -3.53544 -4.33851 -2.02266 0.0966107 -0.901955 -0.343685 -3.53423 
157 -0.729919 6.45733 34.5287 -3.10959 -4.24677 -1.89747 0.126081 -1.34865 -0.460833 -3.53362 
158 1.49119 5.21365 34.5382 -2.83825 -3.57231 -1.68334 -0.0726791 -0.892966 -0.345359 -3.53307 
159 -0.805994 6.44942 37.1024 -3.06073 -4.09376 -1.65723 0.128056 -1.34093 -0.486359 -3.53389 
160 3.70798 3.95532 34.5397 -3.30687 -3.12295 -1.6757 -0.341087 -0.508363 0.554597 -3.53307 
161 1.71163 3.06286 35.8318 -3.16934 -3.44047 -1.75056 -0.214061 -0.458439 0.0496099 -3.5296 
162 1.67601 3.08325 38.4084 -3.02151 -3.28328 -1.50318 -0.199804 -0.455222 0.0468247 -3.52977 
163 1.42945 5.23083 37.1126 -2.7672 -3.45177 -1.45484 -0.0578457 -0.893764 -0.360094 -3.53313 
164 3.66124 3.99863 37.1139 -3.20455 -3.03442 -1.44764 -0.322216 -0.5219 0.539442 -3.53312 
165 -0.562693 4.29503 38.4024 -3.4198 -4.13924 -1.77116 0.095932 -0.893861 -0.354724 -3.53458 
166 -0.612638 4.28991 40.9813 -3.25464 -3.91081 -1.523 0.0962543 -0.882132 -0.365331 -3.53492 
167 -0.881526 6.44179 39.6793 -2.94695 -3.88134 -1.41096 0.127265 -1.328 -0.499143 -3.53426 
168 1.36837 5.24827 39.69 -2.63537 -3.27815 -1.21759 -0.0508797 -0.883569 -0.362694 -3.5333 
169 -0.956405 6.43415 42.2586 -2.7766 -3.62954 -1.17625 0.126377 -1.30987 -0.512008 -3.53461 
170 3.61518 4.04195 39.6912 -3.04124 -2.89174 -1.21082 -0.309407 -0.524042 0.53229 -3.53329 
171 1.6408 3.10356 40.9875 -2.83204 -3.08936 -1.25287 -0.189388 -0.449192 0.0441797 -3.53 
172 1.6059 3.12365 43.5687 -2.61089 -2.86675 -0.997257 -0.180312 -0.446948 0.0332898 -3.53027 
173 1.30799 5.26581 42.2697 -2.4492 -3.06059 -0.981686 -0.0489886 -0.868924 -0.367632 -3.53355 
174 3.56975 4.0852 42.2708 -2.82437 -2.70334 -0.977001 -0.300492 -0.524649 0.522246 -3.53354 
175 -0.66213 4.28447 43.5622 -3.05118 -3.66354 -1.27752 0.0987086 -0.867633 -0.38397 -3.53523 
176 -0.711336 4.27865 46.1445 -2.8214 -3.39521 -1.01458 0.102489 -0.852476 -0.416203 -3.53549 
177 -1.0307 6.42627 44.8393 -2.55671 -3.34522 -0.959582 0.126735 -1.28884 -0.530295 -3.53496 
178 1.24817 5.2833 44.851 -2.21589 -2.80375 -0.748754 -0.0504546 -0.858337 -0.386484 -3.53386 
179 -1.10477 6.4185 47.4203 -2.29409 -3.01661 -0.772519 0.12918 -1.26941 -0.544367 -3.53529 
180 3.52475 4.1283 44.852 -2.55926 -2.47651 -0.752035 -0.292835 -0.532657 0.500681 -3.53383 
181 1.5711 3.14347 46.1516 -2.36271 -2.61788 -0.718886 -0.172196 -0.456122 0.00565486 -3.53054 
182 1.53627 3.16344 48.7364 -2.08832 -2.36123 -0.347542 -0.183385 -0.479099 -0.0350804 -3.53015 
183 1.18845 5.30075 47.4331 -1.94169 -2.50482 -0.517695 -0.063633 -0.864531 -0.43207 -3.53412 
184 3.47991 4.1713 47.4338 -2.23967 -2.2207 -0.544277 -0.286552 -0.558727 0.456103 -3.53404 
185 -0.760747 4.27348 48.7284 -2.60135 -3.07335 -0.666317 0.096569 -0.84275 -0.42341 -3.53517 
186 -0.811621 4.26877 51.3169 -1.98839 -2.35091 0.313298 0.0838891 -0.84222 -0.652851 -3.53805 
187 -1.17889 6.41384 50.0002 -2.05518 -2.54104 -0.330424 0.0856902 -1.27531 -0.621575 -3.53574 
188 1.12775 5.31799 50.0156 -1.56929 -2.07899 -0.0208412 -0.11007 -0.944537 -0.598112 -3.53484 
189 -1.25707 6.40546 52.5877 -1.61243 -2.48693 0.643228 0.175829 -1.31631 -0.612995 -3.53281 
190 3.43505 4.21346 50.0156 -1.75955 -1.85325 -0.0396611 -0.309442 -0.668204 0.310775 -3.5349 
191 1.50027 3.18358 51.3264 -1.43165 -1.70127 0.657686 -0.172623 -0.548772 -0.132884 -3.53273 
192 1.46587 3.20964 53.9052 0.0266964 0.953983 -0.795903 0.566303 -0.560989 0.138961 -3.37565 
193 1.06597 5.33731 52.6041 -1.2492 -1.89861 0.441457 -0.236995 -0.801305 -0.410781 -3.52779 
194 3.38747 4.26008 52.6041 -1.41016 -1.71367 0.389788 -0.390651 -0.639406 0.587393 -3.52746 
195 -0.866323 4.2769 53.8949 -0.0508497 -0.206143 -1.18043 0.0793799 -1.26166 1.02744 -3.38132 
196 1.3298 4.1174 -56.3442 5.06942 2.90557 1.60241 -1.25474 -0.27389 0.110266 -2.79034 
197 -1.33605 6.40133 55.1665 4.18002 2.79748 1.28996 0.319915 -1.5232 0.197898 -3.26107 
198 1.00488 5.36129 55.1754 5.64213 6.63187 2.70777 0.369883 -0.636452 -0.0325908 -3.15047 
199 1.98371 6.26223 -55.1334 6.93989 9.11552 2.92918 0.134184 -0.847908 -0.525672 -3.02309 
200 3.34328 4.30996 55.1754 5.53065 7.35772 2.86913 0.118696 -0.27861 0.562652 -3.15115 
201 2.87095 2.09325 -56.362 4.04253 6.0065 1.88103 -3.16453 0.252654 0.341799 -2.79939 
202 2.84551 2.1252 -53.8874 0.165032 0.763307 -3.02648 -0.9821 -0.732811 -0.162361 -3.51266 
203 3.53831 4.21674 -55.1525 6.03166 6.27392 1.75934 0.302436 -1.2195 -0.0444726 -3.1433 
204 5.07312 2.13635 -55.1525 6.04997 7.03887 2.00314 0.446062 -0.528117 0.0805417 -3.14511 
205 1.29262 4.16451 -53.8815 0.861251 -0.348221 -3.6751 -0.408862 -0.57388 0.839 -3.51412 
206 1.24176 4.17585 -51.3147 -1.28719 -1.91134 -0.377764 -0.214932 -0.880931 0.220672 -3.53903 
207 1.90264 6.26187 -52.5941 -0.917998 -1.45677 -0.573006 -0.184181 -1.16805 0.820095 -3.52792 
208 3.4607 4.22944 -52.6036 -0.749014 -0.925876 0.0953393 -0.677522 -0.496109 0.19135 -3.53019 
209 1.82403 6.27282 -50.0101 -1.64473 -2.33006 -0.269948 -0.197617 -1.27804 0.428719 -3.53673 
210 5.01221 2.17771 -52.6036 -1.34195 -0.348616 0.0545151 -0.502577 0.0191648 0.991484 -3.52952 
211 2.80522 2.14769 -51.32 -1.10376 -0.947 -0.113892 -0.27823 -0.333568 0.262306 -3.53415 
212 2.77239 2.17446 -48.7405 -1.97255 -1.83909 -0.549864 -0.290847 -0.21998 0.334139 -3.53088 
213 3.40036 4.25787 -50.02 -1.43269 -1.65492 -0.142835 -0.409032 -0.706175 0.285052 -3.53497 
214 4.971 2.23184 -50.02 -1.84475 -1.27452 -0.115687 -0.296603 0.0233095 0.834717 -3.53501 
215 1.1898 4.18023 -48.7356 -2.18177 -2.76067 -0.795808 -0.179532 -0.843654 0.274396 -3.5364 
216 1.14012 4.18596 -46.1542 -2.64116 -3.1936 -0.983064 -0.161027 -0.828295 0.395029 -3.53605 
217 1.74891 6.27832 -47.4307 -2.10417 -2.83547 -0.684553 -0.211944 -1.23673 0.53957 -3.53589 
218 3.34531 4.28723 -47.4412 -1.90087 -2.20995 -0.568308 -0.300044 -0.634858 0.333419 -3.53415 
219 1.67518 6.28985 -44.8497 -2.47418 -3.19198 -0.871243 -0.197546 -1.24011 0.59935 -3.53535 
220 4.93507 2.28424 -47.4404 -2.32466 -1.78947 -0.544507 -0.210751 0.109213 0.862841 -3.5342 
221 2.74232 2.20147 -46.1595 -2.36875 -2.27002 -0.743163 -0.228944 -0.157794 0.389599 -3.53075 
222 2.7141 2.22991 -43.5778 -2.68219 -2.59277 -0.953807 -0.211577 -0.146207 0.410439 -3.53038 
223 3.292 4.31921 -44.8606 -2.23804 -2.57446 -0.723015 -0.258415 -0.620779 0.369217 -3.53393 
224 4.90235 2.33713 -44.8596 -2.66153 -2.14407 -0.7258 -0.175303 0.146681 0.894518 -3.53393 
225 1.09114 4.19424 -43.5724 -2.98087 -3.51321 -1.21045 -0.147006 -0.836301 0.421602 -3.53554 
226 1.04203 4.20332 -40.9914 -3.24186 -3.78834 -1.45131 -0.143905 -0.849672 0.428905 -3.5351 
227 1.60161 6.30315 -42.2688 -2.75765 -3.49793 -1.09778 -0.196136 -1.25799 0.615816 -3.53485 
228 3.23958 4.35272 -42.2798 -2.51246 -2.87076 -0.922421 -0.240548 -0.623158 0.387296 -3.53361 
229 1.52754 6.31719 -39.6891 -2.96945 -3.76506 -1.34137 -0.202625 -1.27755 0.620016 -3.53439 
230 4.87111 2.39097 -42.2788 -2.94579 -2.42625 -0.931267 -0.163733 0.158436 0.919959 -3.5336 
231 2.68639 2.25915 -40.9967 -2.93907 -2.85442 -1.18332 -0.208064 -0.144319 0.424775 -3.53007 
232 2.65875 2.28903 -38.4172 -3.15331 -3.06964 -1.42492 -0.212357 -0.143959 0.436494 -3.52982 
233 3.18734 4.38733 -39.7 -2.73063 -3.11082 -1.1457 -0.234559 -0.628457 0.39794 -3.53334 
234 4.84042 2.44582 -39.6989 -3.18337 -2.64424 -1.15478 -0.163802 0.163033 0.941926 -3.53333 
235 0.992496 4.21272 -38.4121 -3.44246 -4.03276 -1.70208 -0.148457 -0.862654 0.430469 -3.53468 
236 0.942491 4.22239 -35.8351 -3.58427 -4.24308 -1.95734 -0.157722 -0.873444 0.425391 -3.53431 
237 1.45278 6.33179 -37.1116 -3.11248 -3.98867 -1.59327 -0.2132 -1.29408 0.615259 -3.53399 
238 3.13504 4.42293 -37.1221 -2.89282 -3.29455 -1.37911 -0.237598 -0.635505 0.400233 -3.53315 
239 1.3774 6.34695 -34.5372 -3.18759 -4.15759 -1.83969 -0.223569 -1.30704 0.596627 -3.53368 
240 4.81 2.50168 -37.121 -3.37134 -2.80086 -1.38714 -0.173756 0.162295 0.95603 -3.53315 
241 2.63107 2.31952 -35.84 -3.32387 -3.23876 -1.67086 -0.223844 -0.146536 0.442346 -3.52964 
242 2.60334 2.35053 -33.2657 -3.44622 -3.35957 -1.91079 -0.2423 -0.155337 0.438474 -3.52955 
243 3.0826 4.45941 -34.5471 -2.9968 -3.4206 -1.60902 -0.248979 -0.647502 0.388942 -3.53307 
244 4.77976 2.55844 -34.5459 -3.50443 -2.89808 -1.61636 -0.193711 0.151276 0.957215 -3.53306 
245 0.892078 4.23232 -33.2612 -3.66663 -4.41031 -2.20563 -0.168319 -0.882225 0.409636 -3.534 
246 0.841329 4.24242 -30.6907 -3.69694 -4.53166 -2.43344 -0.177237 -0.889728 0.382183 -3.5338 
247 1.3015 6.36252 -31.9663 -3.20468 -4.26978 -2.06435 -0.230661 -1.31742 0.561833 -3.53349 
248 3.02992 4.49646 -31.9754 -3.04729 -3.49615 -1.82277 -0.267014 -0.665319 0.362928 -3.53307 
249 1.22515 6.37816 -29.399 -3.1816 -4.33492 -2.25623 -0.233419 -1.3257 0.514471 -3.53342 
250 4.74954 2.6158 -31.974 -3.58513 -2.94524 -1.83023 -0.222091 0.127608 0.945351 -3.53306 
251 2.57546 2.38186 -30.6946 -3.52181 -3.43625 -2.13348 -0.265947 -0.17092 0.424676 -3.52954 
252 2.5473 2.41329 -28.1268 -3.55919 -3.47922 -2.33054 -0.291852 -0.190809 0.404318 -3.52958 
253 2.97681 4.53366 -29.4069 -3.05671 -3.53518 -2.01208 -0.288705 -0.686436 0.326721 -3.53312 
254 4.71904 2.67343 -29.4055 -3.62389 -2.9576 -2.02014 -0.255496 0.0941569 0.924891 -3.5331 
255 0.790286 4.25247 -28.1235 -3.68985 -4.61306 -2.63117 -0.182678 -0.89628 0.346232 -3.53368 
256 0.738966 4.26223 -25.5594 -3.66054 -4.66422 -2.79534 -0.184059 -0.901819 0.306452 -3.53362 
257 1.14838 6.39347 -26.8348 -3.13586 -4.36674 -2.41208 -0.231987 -1.33185 0.460698 -3.53343 
258 2.92314 4.57063 -26.8416 -3.03925 -3.55138 -2.17363 -0.310786 -0.707722 0.286364 -3.53318 
259 1.07121 6.40811 -24.2734 -3.08075 -4.37762 -2.53429 -0.22683 -1.33602 0.405981 -3.53347 
260 4.68798 2.73104 -26.84 -3.63315 -2.94971 -2.18212 -0.290265 0.0559256 0.900836 -3.53316 
261 2.51872 2.4446 -25.562 -3.5694 -3.50007 -2.49803 -0.317252 -0.211916 0.381417 -3.52963 
262 2.48963 2.47564 -22.9998 -3.56235 -3.50818 -2.63593 -0.340283 -0.231994 0.358883 -3.52968 
263 2.8688 4.60708 -24.279 -3.00679 -3.55495 -2.30758 -0.330694 -0.726998 0.246443 -3.53323 
264 4.65612 2.78841 -24.2773 -3.62368 -2.93246 -2.31591 -0.323703 0.0173035 0.876774 -3.53321 
265 0.687384 4.27153 -22.998 -3.62085 -4.69466 -2.92723 -0.181565 -0.906269 0.266708 -3.5336 
266 0.63556 4.28025 -20.4387 -3.57865 -4.7119 -3.03071 -0.175736 -0.909708 0.22937 -3.5336 
267 0.993671 6.42187 -21.7142 -3.02489 -4.37675 -2.62789 -0.218471 -1.33866 0.353861 -3.53354 
268 2.81374 4.64283 -21.7187 -2.96779 -3.55259 -2.41609 -0.346949 -0.743252 0.209514 -3.53327 
269 0.915812 6.43463 -19.1567 -2.97316 -4.37026 -2.69846 -0.207467 -1.34032 0.306066 -3.5336 
270 4.62336 2.84541 -21.7169 -3.60352 -2.91288 -2.42366 -0.354302 -0.01891 0.85472 -3.53325 
271 2.45999 2.50631 -20.44 -3.54552 -3.51004 -2.74664 -0.360027 -0.249865 0.338291 -3.52972 
272 2.42981 2.53657 -17.8819 -3.524 -3.50967 -2.83377 -0.376255 -0.265155 0.320238 -3.52975 
273 2.75799 4.67779 -19.1603 -2.92767 -3.54833 -2.50232 -0.359023 -0.756325 0.176583 -3.5333 
274 4.58963 2.90197 -19.1585 -3.57816 -2.89498 -2.50872 -0.381471 -0.0513983 0.835537 -3.53328 
275 0.583524 4.28831 -17.8811 -3.53854 -4.72129 -3.11046 -0.167223 -0.912339 0.195507 -3.53361 
276 0.531306 4.29568 -15.3249 -3.50285 -4.72632 -3.17102 -0.156661 -0.914411 0.165317 -3.53362 
277 0.837672 6.44631 -16.6007 -2.92784 -4.36191 -2.75107 -0.194396 -1.34151 0.263062 -3.53367 
278 2.70158 4.71192 -16.6034 -2.88953 -3.54441 -2.5697 -0.367016 -0.766541 0.147716 -3.53332 
279 0.759288 6.4569 -14.0457 -2.88957 -4.35381 -2.78987 -0.179818 -1.34257 0.224577 -3.53372 
280 4.55494 2.95804 -16.6016 -3.55108 -2.88078 -2.57477 -0.405172 -0.0798771 0.819369 -3.53331 
281 2.39909 2.56639 -15.3253 -3.50101 -3.50933 -2.90118 -0.389153 -0.277982 0.304743 -3.52978 
282 2.36788 2.59578 -12.7698 -3.47841 -3.51018 -2.95244 -0.399098 -0.288707 0.29153 -3.5298 
283 2.64454 4.7452 -14.0477 -2.85492 -3.54196 -2.62151 -0.371358 -0.774426 0.122496 -3.53334 
284 4.51933 3.01361 -14.0459 -3.52431 -2.87102 -2.62525 -0.42566 -0.104655 0.805965 -3.53333 
285 0.478935 4.30235 -12.7698 -3.47251 -4.72915 -3.21631 -0.144617 -0.916154 0.138509 -3.53364 
286 0.426437 4.30832 -10.2155 -3.44749 -4.73101 -3.24947 -0.131559 -0.917726 0.114556 -3.53365 
287 0.680692 6.46639 -11.4915 -2.85798 -4.34704 -2.81808 -0.164221 -1.34371 0.189981 -3.53376 
288 2.58693 4.77764 -11.493 -2.82434 -3.54144 -2.66064 -0.372598 -0.780528 0.100302 -3.53335 
289 0.601914 6.4748 -8.93795 -2.83223 -4.34205 -2.83807 -0.147985 -1.34496 0.158512 -3.53379 
290 4.48282 3.06866 -11.4911 -3.49894 -2.86577 -2.66312 -0.443301 -0.126316 0.794893 -3.53334 
291 2.33621 2.62472 -10.2152 -3.45715 -3.51267 -2.99061 -0.406532 -0.297769 0.280197 -3.52982 
292 2.3041 2.65323 -7.66126 -3.43759 -3.51692 -3.01812 -0.411869 -0.305589 0.270317 -3.52983 
293 2.52879 4.80926 -8.93889 -2.79772 -3.54294 -2.68944 -0.371272 -0.785323 0.0804714 -3.53336 
294 4.44547 3.1232 -8.93701 -3.47542 -2.86472 -2.69077 -0.458476 -0.145514 0.785661 -3.53335 
295 0.373832 4.31359 -7.66172 -3.42731 -4.73257 -3.27291 -0.117853 -0.919182 0.0928479 -3.53366 
296 0.321139 4.31817 -5.10839 -3.41124 -4.73413 -3.28836 -0.103754 -0.920462 0.0727767 -3.53366 
297 0.522979 6.48215 -6.3848 -2.81132 -4.33895 -2.85151 -0.131351 -1.34621 0.129397 -3.53382 
298 2.47015 4.84005 -6.38532 -2.77466 -3.5464 -2.70976 -0.367819 -0.789161 0.0623827 -3.53336 
299 0.443918 6.48843 -3.83193 -2.79444 -4.33767 -2.8595 -0.11442 -1.34727 0.101914 -3.53383 
300 4.40732 3.17722 -6.38343 -3.45382 -2.86747 -2.71 -0.471504 -0.162861 0.777789 -3.53336 
301 2.27158 2.6813 -5.10773 -3.41972 -3.52286 -3.03683 -0.415452 -0.312507 0.261487 -3.52984 
302 2.23867 2.70893 -2.55449 -3.4034 -3.53039 -3.04798 -0.417504 -0.318776 0.253359 -3.52984 
303 2.41106 4.87003 -3.83208 -2.75472 -3.55169 -2.7229 -0.362535 -0.792272 0.045494 -3.53337 
304 4.36839 3.23072 -3.83018 -3.43408 -2.87365 -2.72211 -0.482605 -0.178879 0.770849 -3.53336 
305 0.268376 4.32208 -2.55532 -3.39862 -4.7358 -3.29694 -0.0893986 -0.921414 0.0537741 -3.53367 
306 0.364767 6.49366 -1.27923 -2.78119 -4.33813 -2.86269 -0.0971714 -1.34794 0.0754206 -3.53385 
307 2.35154 4.89919 -1.27904 -2.73756 -3.55876 -2.72969 -0.355553 -0.794792 0.0293479 -3.53337 
308 4.32872 3.28367 -1.27713 -3.41607 -2.88295 -2.72792 -0.491876 -0.193992 0.764476 -3.53336 
309 2.43655 7.09145 -0.00287555 -2.21269 -3.35729 -2.40121 -0.318158 -1.19887 -0.184352 -3.53292 
310 0.434807 8.66873 -0.00325952 -2.24587 -4.01194 -2.49478 -0.100122 -1.73405 0.0854008 -3.5336 