ITEM: TIMESTEP
212
ITEM: NUMBER OF ATOMS
37664
ITEM: BOX BOUNDS ff ff ff
-100 100
-100 100
-156.15 156.15
ITEM: ATOMS id x y z v_peratom_sxx v_peratom_syy v_peratom_szz v_peratom_sxy v_peratom_sxz v_peratom_syz c_atomPE 
1 -0.00337461 -0.00158164 -0.000335608 -5.18117 -5.16917 -9.54348 3.02552e-05 -0.00835736 -0.0473514 -3.51524 
2 -0.00358014 -0.00133314 2.55282 -5.17881 -5.16769 -9.53928 -0.00100137 -0.00643431 -0.0466478 -3.51526 
3 -0.00376225 -0.00107162 5.1061 -5.17223 -5.16223 -9.52502 -0.00205828 -0.00408914 -0.045596 -3.51532 
4 -0.00391866 -0.000798273 7.65964 -5.16095 -5.15235 -9.49976 -0.0031295 -0.00128296 -0.0442021 -3.51544 
5 -0.00404559 -0.000515874 10.2136 -5.1442 -5.1373 -9.46193 -0.00418518 0.00195593 -0.0424563 -3.51562 
6 -0.00413805 -0.000228412 12.7682 -5.12084 -5.11592 -9.40921 -0.00517978 0.00551453 -0.0403438 -3.51586 
7 -0.0041906 5.93918e-05 15.3236 -5.0893 -5.08657 -9.33848 -0.00606178 0.00920705 -0.0378663 -3.51619 
8 -0.00419847 0.000342437 17.8801 -5.04739 -5.04694 -9.24572 -0.00678553 0.0128124 -0.0350641 -3.51662 
9 -0.00415834 0.000615261 20.438 -4.99207 -4.99388 -9.12594 -0.00732021 0.0161219 -0.0320295 -3.51716 
10 -0.00406873 0.000871747 22.9976 -4.91921 -4.92313 -8.97334 -0.00765374 0.0189793 -0.028908 -3.51785 
11 -0.00392975 0.00110474 25.5594 -4.82345 -4.82925 -8.78201 -0.00779237 0.0213039 -0.0258848 -3.5187 
12 -0.0037425 0.00130578 28.1239 -4.69845 -4.70582 -8.54764 -0.00775754 0.0230928 -0.0231613 -3.51972 
13 -0.0035084 0.00146526 30.6914 -4.53839 -4.54701 -8.27058 -0.00758067 0.0244063 -0.0209216 -3.52091 
14 -0.00322854 0.00157276 33.2621 -4.34176 -4.35124 -7.95957 -0.00729556 0.0253404 -0.0193001 -3.52221 
15 -0.00290327 0.00161746 35.836 -4.11644 -4.12643 -7.6321 -0.0069302 0.0260029 -0.0183673 -3.52348 
16 -0.00253179 0.00158808 38.4127 -3.87851 -3.88865 -7.30655 -0.00650035 0.0264921 -0.018136 -3.52458 
17 -0.0021115 0.00147203 40.9918 -3.63957 -3.64951 -6.98938 -0.00600396 0.026886 -0.0185933 -3.52547 
18 -0.001635 0.00125256 43.5732 -3.40063 -3.40998 -6.66779 -0.00540475 0.0273114 -0.0197705 -3.52619 
19 -0.0010853 0.000904014 46.157 -3.13656 -3.14469 -6.30494 -0.00456887 0.0279358 -0.02175 -3.52694 
20 -0.00044392 0.000387102 48.7436 -2.75393 -2.75849 -5.86519 -0.00258194 0.0280551 -0.0244516 -3.5278 
21 5.95933e-07 -4.11185e-08 51.3317 -1.9234 -1.92305 -4.92112 0.000194377 -0.00145727 0.00129544 -3.53204 
22 4.01304e-07 -1.42881e-06 53.9138 -0.85178 -0.851792 -8.91776 -3.66477e-07 -1.83776e-05 -7.24462e-05 -3.48169 
23 8.71386e-07 -1.98378e-06 56.3885 1.68563 1.68564 1.87703 -9.42593e-06 1.7746e-05 -1.50706e-06 -2.55581 
24 -1.23087e-07 -1.12453e-06 -53.8876 -2.60722 -2.60723 -6.54977 -1.32753e-05 9.78178e-06 -3.15999e-05 -3.40183 
25 1.02659e-07 -1.55837e-06 -51.3239 -2.07905 -2.07907 -5.58003 -0.000507054 0.00069404 0.0023784 -3.52873 
26 -0.000163962 -0.000675206 -48.7463 -2.69547 -2.69426 -6.1505 0.00674557 -0.0104747 -0.0421977 -3.52638 
27 -0.000350102 -0.00160514 -46.1647 -3.02246 -3.02008 -6.35154 0.0120344 -0.00837075 -0.0388134 -3.52676 
28 -0.000462384 -0.00229208 -43.5823 -3.30364 -3.29987 -6.61196 0.0136311 -0.00551549 -0.0359041 -3.52633 
29 -0.000514523 -0.00279472 -41.0009 -3.55873 -3.55328 -6.89977 0.0142296 -0.00320591 -0.0337684 -3.52573 
30 -0.000532352 -0.00315105 -38.4212 -3.80857 -3.80131 -7.20767 0.0142612 -0.00161401 -0.0323017 -3.5249 
31 -0.000538538 -0.00338559 -35.8437 -4.05458 -4.04551 -7.53188 0.0138918 -0.000864309 -0.0314557 -3.52384 
32 -0.00055334 -0.00351722 -33.2689 -4.28755 -4.27679 -7.86152 0.0132238 -0.00103921 -0.0312553 -3.52261 
33 -0.000594574 -0.00356304 -30.6972 -4.49461 -4.48237 -8.17918 0.0123463 -0.00211013 -0.0317247 -3.52132 
34 -0.000676172 -0.00353952 -28.1287 -4.66724 -4.65381 -8.46784 0.0113405 -0.00390464 -0.0328414 -3.5201 
35 -0.000806412 -0.00346216 -25.5633 -4.8044 -4.79009 -8.7169 0.010275 -0.00612486 -0.0345136 -3.51901 
36 -0.000986857 -0.00334481 -23.0006 -4.90993 -4.89508 -8.92333 0.00919811 -0.00841047 -0.0365789 -3.51809 
37 -0.00121257 -0.0031988 -20.4403 -4.98952 -4.97441 -9.08938 0.00813545 -0.0104272 -0.0388337 -3.51735 
38 -0.00147372 -0.00303272 -17.8819 -5.04878 -5.03365 -9.21999 0.00709336 -0.011937 -0.0410738 -3.51675 
39 -0.00175788 -0.00285249 -15.325 -5.09248 -5.0775 -9.32086 0.00606747 -0.0128288 -0.0431263 -3.51629 
40 -0.00205236 -0.00266192 -12.7693 -5.12438 -5.10969 -9.39735 0.00505154 -0.0131083 -0.0448657 -3.51593 
41 -0.00234593 -0.00246307 -10.2145 -5.1473 -5.133 -9.45407 0.0040422 -0.0128593 -0.0462146 -3.51566 
42 -0.00262983 -0.00225655 -7.66045 -5.16327 -5.14943 -9.49469 0.00303881 -0.0121927 -0.0471359 -3.51547 
43 -0.00289802 -0.0020418 -5.10683 -5.17371 -5.16039 -9.52197 0.00204003 -0.0112009 -0.047622 -3.51534 
44 -0.0031469 -0.0018174 -2.5535 -5.17952 -5.1668 -9.53785 0.0010405 -0.0099271 -0.0476855 -3.51527 
45 0.0927549 2.15865 1.27496 -4.05148 -5.13352 -3.83755 -0.0525065 -0.442345 -0.00545569 -3.52909 
46 0.0663314 2.15988 3.82812 -4.04862 -5.13354 -3.82977 -0.0405489 -0.441747 -0.0147263 -3.5291 
47 0.039935 2.16077 6.38147 -4.04761 -5.1316 -3.81375 -0.0284702 -0.440812 -0.0241589 -3.52912 
48 0.0135825 2.16134 8.93517 -4.04861 -5.12738 -3.78856 -0.0163123 -0.439564 -0.0340184 -3.52914 
49 -0.0127083 2.16156 11.4894 -4.05184 -5.12032 -3.75273 -0.00414223 -0.438083 -0.0445901 -3.52917 
50 -0.0389202 2.16144 14.0443 -4.05746 -5.10953 -3.70421 0.00791129 -0.436483 -0.0562029 -3.52921 
51 -0.0650383 2.16098 16.6002 -4.0654 -5.09369 -3.64024 0.0196306 -0.434875 -0.0692389 -3.52926 
52 -0.0910507 2.16016 19.1572 -4.0751 -5.07081 -3.55734 0.0306956 -0.433332 -0.0841081 -3.52933 
53 -0.116949 2.159 21.7159 -4.08516 -5.03797 -3.45124 0.0406827 -0.431873 -0.101158 -3.52941 
54 -0.14273 2.1575 24.2764 -4.09271 -4.99091 -3.31721 0.0490827 -0.430456 -0.12047 -3.52951 
55 -0.168392 2.15569 26.8393 -4.09243 -4.92371 -3.15082 0.0553609 -0.428982 -0.141481 -3.52966 
56 -0.193935 2.15363 29.405 -4.07542 -4.82867 -2.94961 0.0591068 -0.427291 -0.162457 -3.52985 
57 -0.219354 2.1514 31.9739 -4.02885 -4.69773 -2.71573 0.0603204 -0.425152 -0.180211 -3.53012 
58 -0.24463 2.14908 34.546 -3.93932 -4.5265 -2.45815 0.0597456 -0.422234 -0.191252 -3.53047 
59 -0.269727 2.14671 37.1214 -3.8015 -4.32036 -2.19109 0.0588593 -0.418114 -0.195347 -3.53088 
60 -0.294593 2.14422 39.6994 -3.62382 -4.09394 -1.92597 0.059151 -0.412455 -0.197606 -3.53128 
61 -0.3192 2.1415 42.2797 -3.41825 -3.8579 -1.66296 0.0612807 -0.405444 -0.204229 -3.53165 
62 -0.343583 2.13846 44.862 -3.19139 -3.60895 -1.39041 0.0644858 -0.397659 -0.221972 -3.53193 
63 -0.367898 2.13529 47.4464 -2.9138 -3.29701 -1.1044 0.0655434 -0.391271 -0.24302 -3.53223 
64 -0.392512 2.13371 50.032 -2.43067 -2.8016 -0.491392 0.0608163 -0.411541 -0.208311 -3.53325 
65 -0.418483 2.1304 52.6263 -1.76569 -2.00559 -0.561429 0.0455323 -0.308988 -0.729826 -3.52457 
66 -0.44812 2.14653 55.1778 6.97651 7.7384 2.43096 0.0329941 -0.597328 1.77026 -3.02528 
67 0.649859 2.05055 -55.162 1.38938 0.842308 -0.678597 -0.188259 -0.0991987 1.20757 -3.26036 
68 0.633027 2.08274 -52.6122 -1.11195 -2.21869 -0.457749 -0.37449 -0.489284 -0.161347 -3.53567 
69 0.607028 2.08678 -50.0319 -2.0056 -2.55685 -0.877587 -0.167407 -0.42753 0.0747118 -3.53397 
70 0.581465 2.08792 -47.4534 -2.6389 -3.07312 -1.2138 -0.122962 -0.398738 0.144883 -3.5329 
71 0.55679 2.09119 -44.8714 -3.06061 -3.44276 -1.37219 -0.10016 -0.393601 0.189989 -3.53225 
72 0.532281 2.09532 -42.2895 -3.35988 -3.72828 -1.60064 -0.0900269 -0.397777 0.202561 -3.53182 
73 0.507642 2.09973 -39.709 -3.60379 -3.98414 -1.8508 -0.0877228 -0.403821 0.209112 -3.5314 
74 0.482776 2.10428 -37.1303 -3.80622 -4.22184 -2.11379 -0.0913401 -0.409691 0.212963 -3.53097 
75 0.457676 2.10897 -34.5543 -3.96402 -4.43632 -2.38252 -0.099236 -0.414943 0.211844 -3.53054 
76 0.432375 2.11379 -31.9812 -4.07295 -4.61781 -2.64503 -0.109139 -0.419769 0.203103 -3.53017 
77 0.4069 2.11867 -29.4115 -4.13634 -4.76114 -2.88771 -0.118561 -0.424335 0.186778 -3.52987 
78 0.381268 2.12351 -26.8449 -4.16456 -4.86849 -3.10059 -0.12564 -0.428556 0.165484 -3.52965 
79 0.355487 2.12821 -24.2813 -4.16948 -4.94625 -3.27948 -0.129491 -0.432256 0.142313 -3.52948 
80 0.329565 2.13269 -21.7202 -4.16092 -5.00166 -3.42493 -0.130015 -0.435312 0.119553 -3.52936 
81 0.303518 2.13689 -19.1611 -4.14574 -5.04099 -3.54032 -0.127545 -0.437696 0.0984866 -3.52928 
82 0.277362 2.14077 -16.6038 -4.1283 -5.06903 -3.63007 -0.122575 -0.439461 0.0796288 -3.52921 
83 0.251119 2.14433 -14.0477 -4.11116 -5.08922 -3.69864 -0.115611 -0.440711 0.0630216 -3.52917 
84 0.224808 2.14755 -11.4927 -4.09565 -5.10391 -3.75 -0.107107 -0.441567 0.0484557 -3.52914 
85 0.198446 2.15044 -8.93842 -4.08235 -5.11468 -3.7874 -0.0974405 -0.442136 0.0356115 -3.52911 
86 0.172048 2.15299 -6.38468 -4.07142 -5.12254 -3.81335 -0.0869246 -0.442492 0.0241362 -3.5291 
87 0.145625 2.15521 -3.8313 -4.06275 -5.12809 -3.82967 -0.0758096 -0.442664 0.0136817 -3.52909 
88 0.119191 2.15709 -1.27813 -4.05616 -5.1317 -3.83754 -0.0642901 -0.442631 0.0039194 -3.52909 
89 0.215565 4.32535 -0.00236988 -3.38704 -4.7379 -3.29912 -0.0749637 -0.92041 0.0348115 -3.53368 
90 0.285632 6.49787 1.27344 -2.77178 -4.34072 -2.86147 -0.079001 -1.3469 0.0491263 -3.53386 
91 2.2054 2.73616 -0.00135628 -3.38712 -3.53985 -3.05271 -0.418311 -0.324047 0.245528 -3.52984 
92 2.17181 2.76287 2.55174 -3.37439 -3.55069 -3.05023 -0.417008 -0.32939 0.238091 -3.52984 
93 2.29167 4.92754 1.27395 -2.72248 -3.5682 -2.73038 -0.346496 -0.795896 0.0137413 -3.53337 
94 4.28838 3.33609 1.27588 -3.39925 -2.89569 -2.72804 -0.499145 -0.208111 0.758351 -3.53337 
95 0.162811 4.32787 2.55057 -3.38247 -4.74004 -3.29549 -0.0595759 -0.92037 0.0165959 -3.53368 
96 0.110075 4.32971 5.10364 -3.38156 -4.74234 -3.28575 -0.0439263 -0.919983 -0.00183324 -3.53369 
97 0.206521 6.50099 3.82616 -2.76892 -4.34467 -2.85598 -0.060684 -1.3471 0.0230431 -3.53385 
98 2.23147 4.95502 3.82699 -2.71255 -3.57884 -2.7252 -0.335782 -0.797703 -0.00202648 -3.53337 
99 0.127453 6.50305 6.37906 -2.77087 -4.35028 -2.84588 -0.0420732 -1.34724 -0.00361847 -3.53385 
100 4.24735 3.3879 3.82894 -3.38572 -2.91094 -2.72202 -0.504322 -0.222387 0.752321 -3.53337 
101 2.13789 2.78912 5.10498 -3.3634 -3.56296 -3.04095 -0.414086 -0.334649 0.230603 -3.52984 
102 2.10366 2.81487 7.65848 -3.35434 -3.57656 -3.02427 -0.409388 -0.340029 0.222806 -3.52983 
103 2.17095 4.98165 6.38022 -2.70612 -3.59104 -2.7138 -0.323309 -0.799512 -0.0182638 -3.53337 
104 4.20565 3.43911 6.38219 -3.3744 -2.92896 -2.70977 -0.507379 -0.236824 0.746049 -3.53336 
105 0.0573905 4.33086 7.65696 -3.38476 -4.7447 -3.26937 -0.0280314 -0.919318 -0.0208935 -3.53369 
106 0.00478605 4.33131 10.2107 -3.39264 -4.74695 -3.24545 -0.0119479 -0.918498 -0.041034 -3.53369 
107 0.0484712 6.50405 8.93226 -2.77827 -4.35754 -2.83065 -0.0232468 -1.34746 -0.0314136 -3.53383 
108 2.11014 5.0074 8.93379 -2.70364 -3.60472 -2.69551 -0.308989 -0.801579 -0.035438 -3.53336 
109 -0.0303885 6.50397 11.4859 -2.79183 -4.3664 -2.80942 -0.00434383 -1.34796 -0.0609598 -3.53381 
110 4.1633 3.4897 8.93577 -3.36559 -2.94977 -2.69057 -0.508088 -0.2518 0.73924 -3.53336 
111 2.06913 2.84013 10.2124 -3.34751 -3.59136 -2.99914 -0.402708 -0.345788 0.2144 -3.52982 
112 2.03433 2.86486 12.7669 -3.34322 -3.60709 -2.96403 -0.39382 -0.352245 0.205022 -3.52981 
113 2.04907 5.03226 11.4878 -2.70569 -3.61971 -2.66928 -0.292735 -0.804217 -0.0540988 -3.53336 
114 4.12031 3.53963 11.4898 -3.3596 -2.9734 -2.66333 -0.506161 -0.267752 0.731542 -3.53336 
115 -0.0477092 4.33105 12.765 -3.40581 -4.74875 -3.21263 0.00420149 -0.917664 -0.0627634 -3.53369 
116 -0.10007 4.33009 15.3201 -3.42478 -4.74946 -3.16898 0.0202172 -0.91692 -0.0866615 -3.53368 
117 -0.109092 6.50281 14.0401 -2.81222 -4.37666 -2.78089 0.0144409 -1.34887 -0.0929567 -3.53378 
118 1.98775 5.05619 14.0425 -2.71282 -3.6357 -2.63361 -0.274456 -0.807785 -0.0748914 -3.53335 
119 -0.18761 6.50055 16.5952 -2.83997 -4.38792 -2.74315 0.0328736 -1.35023 -0.128178 -3.53373 
120 4.0767 3.58888 14.0445 -3.35674 -2.99982 -2.62651 -0.501257 -0.285189 0.722509 -3.53335 
121 1.99926 2.88904 15.3223 -3.34167 -3.62327 -2.91687 -0.382488 -0.359775 0.194226 -3.52979 
122 1.96393 2.91266 17.8786 -3.34279 -3.63908 -2.85502 -0.36848 -0.368794 0.181496 -3.52977 
123 1.92621 5.07917 16.5981 -2.72547 -3.6522 -2.58648 -0.254066 -0.812677 -0.0985445 -3.53334 
124 4.03247 3.6374 16.6001 -3.35721 -3.02885 -2.57814 -0.492993 -0.304691 0.71159 -3.53334 
125 -0.152275 4.32841 17.8761 -3.4498 -4.74807 -3.11188 0.0358242 -0.916299 -0.113355 -3.53368 
126 -0.204305 4.32601 20.4335 -3.48064 -4.74285 -3.03794 0.0506729 -0.91574 -0.143432 -3.53367 
127 -0.265915 6.49719 19.1512 -2.87539 -4.39931 -2.69358 0.0506999 -1.35195 -0.167417 -3.53368 
128 1.86446 5.10115 19.1548 -2.74384 -3.66831 -2.52533 -0.231484 -0.819297 -0.125818 -3.53332 
129 -0.343978 6.49274 21.7086 -2.91829 -4.40925 -2.62862 0.0676572 -1.35379 -0.211338 -3.53361 
130 3.98762 3.68516 19.1568 -3.36093 -3.06005 -2.51571 -0.480967 -0.326893 0.69812 -3.53333 
131 1.92836 2.93569 20.4363 -3.34605 -3.65314 -2.77525 -0.351592 -0.379718 0.166284 -3.52974 
132 1.89254 2.95811 22.9957 -3.35002 -3.66317 -2.67377 -0.331717 -0.392864 0.148129 -3.5297 
133 1.80253 5.12213 21.7129 -2.76766 -3.68255 -2.44697 -0.206686 -0.828029 -0.157378 -3.53329 
134 3.94217 3.73212 21.7149 -3.36734 -3.09238 -2.43629 -0.464839 -0.352408 0.681373 -3.5333 
135 -0.256146 4.32292 22.9925 -3.51616 -4.73099 -2.94292 0.0643319 -0.915097 -0.177246 -3.53367 
136 -0.307788 4.31916 25.5535 -3.55354 -4.70806 -2.82194 0.0762717 -0.914174 -0.214545 -3.53368 
137 -0.421772 6.48721 24.2675 -2.96753 -4.41484 -2.54366 0.0834694 -1.35534 -0.260183 -3.53355 
138 1.74041 5.14208 24.2728 -2.79573 -3.69243 -2.34779 -0.179805 -0.839169 -0.193541 -3.53326 
139 -0.499272 6.48069 26.8286 -3.02017 -4.41119 -2.43306 0.0978027 -1.35608 -0.313236 -3.53349 
140 3.89613 3.77824 24.2748 -3.37496 -3.12385 -2.33655 -0.444482 -0.381649 0.660708 -3.53327 
141 1.85651 2.97994 25.5572 -3.35171 -3.6654 -2.54664 -0.30899 -0.408248 0.126911 -3.52966 
142 1.82029 3.00119 28.1212 -3.34555 -3.65388 -2.3904 -0.28404 -0.425181 0.103345 -3.5296 
143 1.67816 5.16104 26.8349 -2.82517 -3.69396 -2.22406 -0.151342 -0.852732 -0.233795 -3.53321 
144 3.84955 3.82353 26.8368 -3.38075 -3.15082 -2.21301 -0.420242 -0.414444 0.635894 -3.53322 
145 -0.359226 4.31481 28.1169 -3.58701 -4.66731 -2.67016 0.085867 -0.912772 -0.253868 -3.53371 
146 -0.410458 4.31003 30.6833 -3.60615 -4.59927 -2.48436 0.092495 -0.91068 -0.291871 -3.5338 
147 -0.576459 6.47334 29.3921 -3.07005 -4.39042 -2.29082 0.110168 -1.35553 -0.368037 -3.53346 
148 1.6158 5.17912 29.3996 -2.85012 -3.68098 -2.07264 -0.122477 -0.868042 -0.276033 -3.53316 
149 -0.65332 6.46542 31.9587 -3.10591 -4.34074 -2.11226 0.119815 -1.35331 -0.419646 -3.53349 
150 3.80253 3.86803 29.4013 -3.37896 -3.16701 -2.06253 -0.393298 -0.44934 0.607728 -3.53316 
151 1.78399 3.02198 30.6881 -3.32223 -3.61981 -2.20348 -0.258307 -0.441689 0.079695 -3.52955 
152 1.74773 3.04246 33.2583 -3.26847 -3.55201 -1.98799 -0.234185 -0.45424 0.0601676 -3.52954 
153 1.55345 5.19654 31.9672 -2.86012 -3.64445 -1.89202 -0.0953624 -0.883007 -0.315684 -3.5331 
154 3.75527 3.91188 31.9688 -3.35968 -3.16238 -1.8832 -0.365948 -0.482752 0.57889 -3.5331 
155 -0.461471 4.30503 33.253 -3.59515 -4.49263 -2.26577 0.0958428 -0.907509 -0.323375 -3.53396 
156 -0.512222 4.3 35.8261 -3.53617 -4.3385 -2.02311 0.0964051 -0.902404 -0.34385 -3.53423 
157 -0.729833 6.45732 34.5288 -3.11003 -4.24671 -1.89776 0.125842 -1.34896 -0.461018 -3.53362 
158 1.49128 5.21365 34.5382 -2.83898 -3.5723 -1.68396 -0.072994 -0.893449 -0.345784 -3.53307 
159 -0.805926 6.44942 37.1024 -3.061 -4.09369 -1.65743 0.127885 -1.34117 -0.486508 -3.53389 
160 3.70807 3.95532 34.5397 -3.30782 -3.12295 -1.67616 -0.341397 -0.508867 0.554343 -3.53307 
161 1.71171 3.06285 35.8318 -3.17033 -3.44043 -1.75114 -0.21438 -0.459016 0.0492595 -3.5296 
162 1.67608 3.08324 38.4084 -3.02222 -3.28325 -1.50366 -0.200055 -0.455684 0.0465494 -3.52976 
163 1.42952 5.23083 37.1126 -2.7677 -3.45177 -1.45534 -0.0580875 -0.894147 -0.360438 -3.53313 
164 3.66131 3.99863 37.1139 -3.20525 -3.03442 -1.44804 -0.322472 -0.522323 0.539228 -3.53312 
165 -0.562625 4.29502 38.4024 -3.42028 -4.13921 -1.7715 0.095786 -0.894212 -0.354847 -3.53458 
166 -0.612587 4.2899 40.9813 -3.25496 -3.91077 -1.52327 0.0961608 -0.882421 -0.365402 -3.53492 
167 -0.881473 6.44179 39.6794 -2.94712 -3.88126 -1.41111 0.127148 -1.32821 -0.499246 -3.53426 
168 1.36842 5.24826 39.69 -2.63571 -3.27816 -1.218 -0.0510577 -0.883874 -0.362956 -3.5333 
169 -0.956366 6.43414 42.2586 -2.77672 -3.62948 -1.17636 0.126302 -1.31005 -0.512061 -3.53461 
170 3.61523 4.04195 39.6912 -3.04175 -2.89175 -1.21116 -0.309608 -0.524388 0.532125 -3.53329 
171 1.64085 3.10355 40.9875 -2.83254 -3.08935 -1.25327 -0.189575 -0.449558 0.0439814 -3.53 
172 1.60594 3.12364 43.5687 -2.61124 -2.86676 -0.99758 -0.180444 -0.447241 0.0331636 -3.53027 
173 1.30803 5.26581 42.2697 -2.44943 -3.06061 -0.982015 -0.0491154 -0.869173 -0.367816 -3.53355 
174 3.56979 4.0852 42.2708 -2.82474 -2.70335 -0.977275 -0.300644 -0.524929 0.522132 -3.53353 
175 -0.662093 4.28446 43.5622 -3.0514 -3.66351 -1.27775 0.0986561 -0.867888 -0.383985 -3.53523 
176 -0.711313 4.27864 46.1445 -2.82156 -3.39521 -1.01478 0.102463 -0.852719 -0.416159 -3.53549 
177 -1.03067 6.42627 44.8393 -2.5568 -3.34518 -0.959665 0.126694 -1.28903 -0.530296 -3.53496 
178 1.24819 5.2833 44.851 -2.21605 -2.80379 -0.749034 -0.0505406 -0.858549 -0.386599 -3.53386 
179 -1.10476 6.41849 47.4203 -2.29415 -3.01663 -0.772563 0.129162 -1.2696 -0.544324 -3.53529 
180 3.52478 4.1283 44.852 -2.55951 -2.47654 -0.75227 -0.292943 -0.532886 0.500613 -3.53383 
181 1.57112 3.14346 46.1516 -2.36295 -2.61794 -0.719163 -0.172281 -0.456371 0.00558256 -3.53054 
182 1.53628 3.16344 48.7364 -2.08851 -2.36138 -0.347768 -0.183444 -0.479361 -0.0351699 -3.53015 
183 1.18847 5.30075 47.4331 -1.9418 -2.50488 -0.517998 -0.0636751 -0.86472 -0.432141 -3.53412 
184 3.47992 4.1713 47.4338 -2.23982 -2.22075 -0.544526 -0.286608 -0.558932 0.456069 -3.53404 
185 -0.760739 4.27348 48.7284 -2.60154 -3.07342 -0.666446 0.096537 -0.843056 -0.423297 -3.53516 
186 -0.811621 4.26877 51.3169 -1.9883 -2.35104 0.313305 0.083914 -0.842205 -0.652844 -3.53805 
187 -1.17889 6.41384 50.0002 -2.05531 -2.541 -0.330554 0.0857392 -1.27546 -0.621575 -3.53574 
188 1.12775 5.31799 50.0156 -1.56929 -2.07903 -0.0208964 -0.110096 -0.944694 -0.598192 -3.53483 
189 -1.25707 6.40546 52.5877 -1.61255 -2.48695 0.643137 0.175811 -1.31629 -0.61305 -3.53281 
190 3.43505 4.21346 50.0156 -1.75961 -1.85324 -0.0396826 -0.309468 -0.668311 0.310675 -3.5349 
191 1.50027 3.18358 51.3264 -1.43168 -1.70133 0.657756 -0.172627 -0.548745 -0.132869 -3.53273 
192 1.46587 3.20964 53.9052 0.0267339 0.954026 -0.795765 0.566321 -0.560949 0.139023 -3.37565 
193 1.06597 5.33731 52.6041 -1.24912 -1.89854 0.441591 -0.236961 -0.801337 -0.410859 -3.52779 
194 3.38747 4.26008 52.6041 -1.41012 -1.71354 0.38992 -0.39068 -0.639469 0.587303 -3.52746 
195 -0.866323 4.2769 53.8949 -0.0508888 -0.206067 -1.18044 0.0793604 -1.26165 1.02745 -3.38132 
196 1.3298 4.1174 -56.3442 5.06941 2.90563 1.60243 -1.2547 -0.273896 0.110257 -2.79034 
197 -1.33605 6.40133 55.1665 4.18016 2.7974 1.29001 0.319937 -1.52318 0.197815 -3.26107 
198 1.00488 5.36129 55.1754 5.64196 6.63182 2.70768 0.369808 -0.636471 -0.0326914 -3.15047 
199 1.98371 6.26223 -55.1334 6.93983 9.11552 2.92904 0.134198 -0.847899 -0.525642 -3.02309 
200 3.34328 4.30996 55.1754 5.53063 7.35755 2.86905 0.118724 -0.278667 0.562591 -3.15115 
201 2.87095 2.09325 -56.362 4.04253 6.00649 1.88094 -3.16452 0.252617 0.341765 -2.79939 
202 2.84551 2.1252 -53.8874 0.164929 0.763236 -3.02656 -0.982133 -0.732824 -0.162371 -3.51266 
203 3.53831 4.21674 -55.1525 6.03165 6.2739 1.75938 0.302438 -1.21953 -0.0444771 -3.1433 
204 5.07312 2.13635 -55.1525 6.04996 7.03885 2.00318 0.446071 -0.528126 0.0805198 -3.14511 
205 1.29262 4.16451 -53.8815 0.861243 -0.348373 -3.67509 -0.408919 -0.573877 0.839009 -3.51412 
206 1.24176 4.17585 -51.3147 -1.28704 -1.91119 -0.377178 -0.214936 -0.880859 0.220673 -3.53903 
207 1.90264 6.26187 -52.5941 -0.918054 -1.45688 -0.573227 -0.184199 -1.16806 0.820087 -3.52792 
208 3.4607 4.22944 -52.6036 -0.748899 -0.925845 0.0955336 -0.677518 -0.496106 0.191357 -3.53019 
209 1.82403 6.27282 -50.0101 -1.64446 -2.32938 -0.269087 -0.197834 -1.27848 0.428564 -3.53673 
210 5.01221 2.17771 -52.6036 -1.34188 -0.348523 0.0547066 -0.502559 0.0191627 0.99149 -3.52952 
211 2.80522 2.14769 -51.32 -1.10354 -0.946771 -0.113007 -0.278168 -0.333444 0.262315 -3.53415 
212 2.77236 2.17446 -48.7405 -1.97095 -1.83833 -0.547706 -0.290628 -0.22156 0.333664 -3.53088 
213 3.40036 4.25787 -50.02 -1.43197 -1.65425 -0.141511 -0.408844 -0.7068 0.28473 -3.53497 
214 4.971 2.23184 -50.02 -1.84384 -1.27404 -0.114438 -0.296514 0.0226357 0.83456 -3.53501 
215 1.18977 4.18023 -48.7356 -2.18018 -2.75964 -0.794044 -0.179251 -0.844653 0.274161 -3.5364 
216 1.14004 4.18596 -46.1542 -2.63912 -3.19285 -0.981019 -0.160656 -0.829071 0.394721 -3.53605 
217 1.74886 6.27831 -47.4307 -2.10283 -2.8349 -0.682844 -0.211633 -1.23722 0.539301 -3.53589 
218 3.34526 4.28723 -47.4411 -1.89968 -2.20963 -0.566255 -0.299823 -0.635816 0.332924 -3.53415 
219 1.6751 6.28984 -44.8497 -2.47254 -3.1914 -0.869621 -0.197068 -1.24061 0.598977 -3.53535 
220 4.93502 2.28424 -47.4403 -2.32324 -1.78928 -0.542644 -0.210639 0.108124 0.862619 -3.5342 
221 2.74223 2.20148 -46.1594 -2.36641 -2.26987 -0.740746 -0.228755 -0.159075 0.389162 -3.53075 
222 2.71397 2.22992 -43.5777 -2.67923 -2.59293 -0.951198 -0.211336 -0.147568 0.409882 -3.53038 
223 3.29191 4.31921 -44.8606 -2.23628 -2.57433 -0.720948 -0.2581 -0.621669 0.368662 -3.53393 
224 4.90226 2.33714 -44.8596 -2.65936 -2.14403 -0.723958 -0.175166 0.145673 0.894274 -3.53393 
225 1.09101 4.19424 -43.5724 -2.97836 -3.51254 -1.20835 -0.146497 -0.837156 0.421106 -3.53554 
226 1.04187 4.20331 -40.9913 -3.23875 -3.78764 -1.4492 -0.143227 -0.850664 0.428201 -3.5351 
227 1.6015 6.30313 -42.2687 -2.75563 -3.49733 -1.09615 -0.195485 -1.25857 0.615288 -3.53485 
228 3.23946 4.35272 -42.2797 -2.51028 -2.87078 -0.920223 -0.240155 -0.624134 0.386606 -3.53361 
229 1.5274 6.31717 -39.689 -2.96694 -3.76439 -1.33972 -0.201796 -1.27823 0.619352 -3.53439 
230 4.87099 2.39098 -42.2787 -2.94311 -2.42635 -0.92932 -0.163554 0.157377 0.919656 -3.53361 
231 2.68623 2.25916 -40.9967 -2.93555 -2.85475 -1.18056 -0.207754 -0.145872 0.424038 -3.53007 
232 2.65856 2.28904 -38.4171 -3.14923 -3.07007 -1.42206 -0.211969 -0.145691 0.435586 -3.52982 
233 3.1872 4.38733 -39.6999 -2.72801 -3.11094 -1.14339 -0.2341 -0.629543 0.3971 -3.53334 
234 4.84028 2.44583 -39.6988 -3.18024 -2.6444 -1.15275 -0.163579 0.16189 0.941551 -3.53334 
235 0.992304 4.21271 -38.412 -3.43868 -4.03198 -1.69995 -0.147603 -0.863782 0.429606 -3.53469 
236 0.942267 4.22237 -35.835 -3.57977 -4.24219 -1.95523 -0.156726 -0.874677 0.424449 -3.53431 
237 1.45262 6.33176 -37.1115 -3.10941 -3.98789 -1.59159 -0.212204 -1.29483 0.614517 -3.53399 
238 3.13488 4.42293 -37.122 -2.88973 -3.29473 -1.37675 -0.237086 -0.636666 0.399276 -3.53315 
239 1.37721 6.34691 -34.5371 -3.1839 -4.1567 -1.838 -0.22245 -1.30785 0.595884 -3.53368 
240 4.80984 2.5017 -37.121 -3.3678 -2.80102 -1.38508 -0.173491 0.161102 0.955595 -3.53315 
241 2.63085 2.31953 -35.8399 -3.3193 -3.2392 -1.66799 -0.223387 -0.148366 0.441311 -3.52964 
242 2.6031 2.35053 -33.2656 -3.44127 -3.35993 -1.90801 -0.241806 -0.157154 0.437382 -3.52956 
243 3.08242 4.4594 -34.547 -2.99324 -3.4208 -1.60666 -0.24844 -0.648673 0.387926 -3.53307 
244 4.77958 2.55845 -34.5458 -3.50054 -2.89818 -1.61432 -0.193414 0.150104 0.956754 -3.53307 
245 0.891827 4.23229 -33.2611 -3.66145 -4.40932 -2.2036 -0.167257 -0.883513 0.408709 -3.53401 
246 0.841058 4.24238 -30.6906 -3.69119 -4.53062 -2.43154 -0.17622 -0.891016 0.381362 -3.5338 
247 1.30129 6.36248 -31.9662 -3.20038 -4.26882 -2.0627 -0.229496 -1.31826 0.561168 -3.5335 
248 3.02972 4.49645 -31.9753 -3.04331 -3.49632 -1.82049 -0.266487 -0.666428 0.361928 -3.53307 
249 1.22492 6.37811 -29.3989 -3.17673 -4.33395 -2.25466 -0.232311 -1.32655 0.513951 -3.53342 
250 4.74934 2.61581 -31.974 -3.581 -2.94524 -1.82827 -0.221783 0.126536 0.944906 -3.53306 
251 2.57521 2.38186 -30.6945 -3.51666 -3.43645 -2.13089 -0.265466 -0.17261 0.423609 -3.52955 
252 2.54704 2.41329 -28.1266 -3.55406 -3.47924 -2.32824 -0.291445 -0.192281 0.403353 -3.52958 
253 2.9766 4.53365 -29.4068 -3.05241 -3.53529 -2.00995 -0.288238 -0.68742 0.325807 -3.53312 
254 4.71884 2.67344 -29.4054 -3.61966 -2.95746 -2.01832 -0.255208 0.0932523 0.924504 -3.53311 
255 0.790003 4.25243 -28.1234 -3.68372 -4.61203 -2.62946 -0.181832 -0.897522 0.345583 -3.53368 
256 0.738681 4.2622 -25.5593 -3.65427 -4.6633 -2.79386 -0.183504 -0.902983 0.306007 -3.53363 
257 1.14813 6.39342 -26.8347 -3.13054 -4.36584 -2.41064 -0.231053 -1.3327 0.460364 -3.53343 
258 2.92292 4.57062 -26.8415 -3.03475 -3.55141 -2.17171 -0.310431 -0.708543 0.285591 -3.53318 
259 1.07095 6.40807 -24.2733 -3.07507 -4.37685 -2.53301 -0.226181 -1.33685 0.405838 -3.53347 
260 4.68777 2.73104 -26.84 -3.62897 -2.94944 -2.18048 -0.290037 0.0552287 0.900544 -3.53316 
261 2.51847 2.4446 -25.5619 -3.5645 -3.49989 -2.49612 -0.316983 -0.213124 0.380609 -3.52963 
262 2.48939 2.47564 -22.9997 -3.55785 -3.50782 -2.63445 -0.340207 -0.23294 0.358255 -3.52968 
263 2.86858 4.60708 -24.2789 -3.00222 -3.55489 -2.30592 -0.330501 -0.72765 0.245837 -3.53323 
264 4.65593 2.78842 -24.2773 -3.61968 -2.93208 -2.31449 -0.323576 0.0168184 0.876595 -3.53321 
265 0.687105 4.27152 -22.9978 -3.61465 -4.6939 -2.92601 -0.181397 -0.907339 0.266459 -3.53361 
266 0.635295 4.28025 -20.4385 -3.57266 -4.71134 -3.02976 -0.176007 -0.910671 0.229273 -3.53361 
267 0.993415 6.42185 -21.7141 -3.01893 -4.37617 -2.6268 -0.21819 -1.33944 0.353883 -3.53354 
268 2.81353 4.64284 -21.7186 -2.96327 -3.55243 -2.41475 -0.346961 -0.74375 0.209073 -3.53327 
269 0.915557 6.43462 -19.1566 -2.96695 -4.36988 -2.69757 -0.20759 -1.34103 0.306199 -3.5336 
270 4.62317 2.84543 -21.7169 -3.59981 -2.91242 -2.4225 -0.354315 -0.0192117 0.854652 -3.53325 
271 2.45978 2.50633 -20.4399 -3.54152 -3.50955 -2.74563 -0.360183 -0.250585 0.337829 -3.52972 
272 2.42962 2.5366 -17.8818 -3.52052 -3.50909 -2.83323 -0.376663 -0.265704 0.319902 -3.52976 
273 2.75779 4.67781 -19.1602 -2.92324 -3.54809 -2.50131 -0.359264 -0.756694 0.176277 -3.5333 
274 4.58946 2.90199 -19.1584 -3.57478 -2.89449 -2.50785 -0.381651 -0.0515654 0.835556 -3.53329 
275 0.583277 4.28833 -17.881 -3.5328 -4.72094 -3.10976 -0.167933 -0.913167 0.195492 -3.53361 
276 0.531078 4.29572 -15.3248 -3.49734 -4.72614 -3.17055 -0.157754 -0.915048 0.165305 -3.53363 
277 0.83742 6.44632 -16.6006 -2.92139 -4.36171 -2.75037 -0.1949 -1.34206 0.263237 -3.53367 
278 2.70139 4.71195 -16.6033 -2.88521 -3.54411 -2.56902 -0.367484 -0.766793 0.147503 -3.53333 
279 0.759043 6.45693 -14.0456 -2.88291 -4.35375 -2.78934 -0.180608 -1.34285 0.224723 -3.53372 
280 4.5548 2.95808 -16.6015 -3.54801 -2.8803 -2.57418 -0.405527 -0.079961 0.819434 -3.53331 
281 2.39893 2.56644 -15.3252 -3.49798 -3.50871 -2.90105 -0.389801 -0.278408 0.30448 -3.52978 
282 2.36775 2.59583 -12.7698 -3.47569 -3.50956 -2.95266 -0.399946 -0.28903 0.29129 -3.5298 
283 2.64437 4.74524 -14.0477 -2.85068 -3.54163 -2.62113 -0.372013 -0.774551 0.122335 -3.53334 
284 4.5192 3.01365 -14.0458 -3.52151 -2.87059 -2.62492 -0.426171 -0.104694 0.806033 -3.53333 
285 0.478728 4.3024 -12.7697 -3.46714 -4.72909 -3.21601 -0.14598 -0.916512 0.138425 -3.53364 
286 0.426253 4.30838 -10.2154 -3.44224 -4.73102 -3.24928 -0.133033 -0.917702 0.114346 -3.53365 
287 0.680462 6.46643 -11.4915 -2.85126 -4.34708 -2.81767 -0.165144 -1.3436 0.19004 -3.53376 
288 2.58677 4.77769 -11.4929 -2.82018 -3.54114 -2.66049 -0.37336 -0.78049 0.10017 -3.53335 
289 0.601711 6.47485 -8.93791 -2.82577 -4.34215 -2.83775 -0.148849 -1.34439 0.158454 -3.5338 
290 4.48272 3.06872 -11.4911 -3.49634 -2.86541 -2.66302 -0.443919 -0.126321 0.794928 -3.53334 
291 2.3361 2.62479 -10.2152 -3.45463 -3.51212 -2.99108 -0.407501 -0.297979 0.27995 -3.52982 
292 2.30402 2.6533 -7.66121 -3.43519 -3.5165 -3.01875 -0.412846 -0.305649 0.270057 -3.52983 
293 2.52866 4.80931 -8.93886 -2.79371 -3.54273 -2.68945 -0.37202 -0.785072 0.0803666 -3.53336 
294 4.4454 3.12326 -8.93698 -3.473 -2.86448 -2.69083 -0.459119 -0.145472 0.785643 -3.53335 
295 0.373678 4.31366 -7.66168 -3.42228 -4.73261 -3.27277 -0.119247 -0.918699 0.0924925 -3.53366 
296 0.321023 4.31824 -5.10837 -3.40673 -4.73421 -3.28821 -0.104872 -0.919514 0.0722973 -3.53367 
297 0.52282 6.4822 -6.38478 -2.80565 -4.33909 -2.85124 -0.13197 -1.34518 0.129225 -3.53382 
298 2.47005 4.8401 -6.3853 -2.771 -3.54635 -2.70982 -0.368412 -0.788664 0.0623244 -3.53337 
299 0.44382 6.48848 -3.83192 -2.79019 -4.33788 -2.85929 -0.11466 -1.34592 0.101667 -3.53384 
300 4.40727 3.17728 -6.38341 -3.45164 -2.86739 -2.71018 -0.472069 -0.162741 0.777724 -3.53336 
301 2.27153 2.68137 -5.1077 -3.41748 -3.52266 -3.03748 -0.416297 -0.312378 0.261237 -3.52984 
302 2.23865 2.70899 -2.55446 -3.40148 -3.53048 -3.04855 -0.418079 -0.318438 0.253157 -3.52984 
303 2.411 4.87007 -3.83207 -2.7517 -3.55187 -2.72293 -0.362847 -0.791539 0.0455091 -3.53337 
304 4.36837 3.23076 -3.83016 -3.43225 -2.87376 -2.72234 -0.482992 -0.178653 0.770763 -3.53336 
305 0.268312 4.32214 -2.55531 -3.3951 -4.73595 -3.29677 -0.0900769 -0.920107 0.0532312 -3.53367 
306 0.364745 6.4937 -1.27922 -2.77894 -4.33845 -2.86259 -0.0969955 -1.34651 0.0751571 -3.53385 
307 2.35153 4.89922 -1.27903 -2.73556 -3.55919 -2.72964 -0.355515 -0.793895 0.029454 -3.53337 
308 4.32873 3.28371 -1.27711 -3.41479 -2.88326 -2.72816 -0.49201 -0.193649 0.764407 -3.53336 
309 2.43658 7.09147 -0.00287054 -2.21189 -3.35782 -2.40081 -0.317693 -1.19782 -0.183967 -3.53292 
310 0.434858 8.66875 -0.0032362 -2.24599 -4.01239 -2.495 -0.0995252 -1.733 0.0853265 -3.53361 