ITEM: TIMESTEP
212
ITEM: NUMBER OF ATOMS
37664
ITEM: BOX BOUNDS ff ff ff
-100 100
-100 100
-156.15 156.15
ITEM: ATOMS id x y z v_peratom_sxx v_peratom_syy v_peratom_szz v_peratom_sxy v_peratom_sxz v_peratom_syz c_atomPE 
1 -0.00137759 -0.000621528 0.000271998 -5.17546 -5.17068 -9.54491 -1.82003e-05 -0.00387449 -0.0198814 -3.51522 
2 -0.00144611 -0.000526984 2.55336 -5.17283 -5.16847 -9.54011 -0.000448073 -0.00273405 -0.0195466 -3.51524 
3 -0.00150336 -0.000429023 5.10657 -5.16618 -5.16229 -9.52524 -0.000859766 -0.00152812 -0.0190189 -3.51531 
4 -0.0015484 -0.000327526 7.66005 -5.15512 -5.15177 -9.49949 -0.00124913 -0.000283475 -0.0183038 -3.51543 
5 -0.00158057 -0.000222611 10.214 -5.13892 -5.13617 -9.46138 -0.0016109 0.000971779 -0.017412 -3.51561 
6 -0.0015994 -0.000114731 12.7685 -5.11645 -5.11436 -9.40865 -0.00193906 0.00220887 -0.0163626 -3.51586 
7 -0.00160459 -4.77899e-06 15.3238 -5.08605 -5.08467 -9.33819 -0.00222732 0.00339977 -0.015184 -3.51618 
8 -0.00159589 0.000105805 17.8803 -5.04543 -5.04478 -9.24589 -0.00246962 0.00451898 -0.0139153 -3.51661 
9 -0.00157311 0.000214936 20.4381 -4.99141 -4.99151 -9.12665 -0.0026607 0.00554579 -0.0126063 -3.51715 
10 -0.00153595 0.000319821 22.9977 -4.91974 -4.92059 -8.97454 -0.00279669 0.00646625 -0.0113162 -3.51783 
11 -0.00148402 0.000416946 25.5595 -4.82497 -4.82652 -8.78355 -0.00287596 0.00727483 -0.0101108 -3.51868 
12 -0.00141672 0.000502171 28.1239 -4.7007 -4.70289 -8.54923 -0.0028998 0.0079745 -0.00905667 -3.51971 
13 -0.00133328 0.000570934 30.6914 -4.54107 -4.54381 -8.27194 -0.00287272 0.00857475 -0.00821177 -3.5209 
14 -0.00123282 0.000618524 33.262 -4.34455 -4.34772 -7.9604 -0.00280128 0.00908763 -0.00761604 -3.5222 
15 -0.00111437 0.000640271 35.8359 -4.11907 -4.12255 -7.63221 -0.00269192 0.00952542 -0.00728794 -3.52347 
16 -0.000976814 0.000631523 38.4126 -3.88078 -3.88443 -7.30586 -0.00254864 0.00989947 -0.00722778 -3.52458 
17 -0.000818641 0.000587228 40.9918 -3.64138 -3.64505 -6.98793 -0.00237017 0.0102211 -0.00743018 -3.52547 
18 -0.000636654 0.000500762 43.5732 -3.40192 -3.40544 -6.66573 -0.00214257 0.0105303 -0.00791064 -3.5262 
19 -0.000424072 0.000362001 46.157 -3.13722 -3.14031 -6.30249 -0.00181343 0.0108892 -0.00870506 -3.52694 
20 -0.000173972 0.000155356 48.7436 -2.75347 -2.75521 -5.86272 -0.00102623 0.0110006 -0.00978595 -3.52781 
21 5.95933e-07 -4.11185e-08 51.3317 -1.92342 -1.92329 -4.92067 8.37543e-05 -0.000568737 0.000507778 -3.53203 
22 4.01304e-07 -1.42881e-06 53.9138 -0.851658 -0.851666 -8.91769 2.17181e-06 -9.97403e-06 -7.18681e-05 -3.48169 
23 8.71386e-07 -1.98378e-06 56.3885 1.68567 1.68567 1.87718 -3.77978e-06 1.17837e-05 -2.28301e-06 -2.55581 
24 -1.23087e-07 -1.12453e-06 -53.8876 -2.60746 -2.60745 -6.54989 -1.70672e-05 1.57934e-05 -2.94865e-05 -3.40182 
25 1.02659e-07 -1.55837e-06 -51.3239 -2.07871 -2.07868 -5.57815 -0.000191076 0.000429504 0.000901121 -3.52873 
26 -0.000104682 -0.000259139 -48.7462 -2.69124 -2.69138 -6.14407 0.00253793 -0.00664247 -0.0161485 -3.52641 
27 -0.000232283 -0.000617903 -46.1645 -3.01693 -3.01698 -6.34284 0.00453857 -0.00586236 -0.0149129 -3.5268 
28 -0.000316874 -0.000885672 -43.582 -3.29741 -3.29715 -6.60212 0.00520152 -0.00509122 -0.0138887 -3.52637 
29 -0.000370617 -0.00108472 -41.0005 -3.55166 -3.55094 -6.88953 0.00552618 -0.00464578 -0.013164 -3.52577 
30 -0.000405436 -0.00122888 -38.4206 -3.80081 -3.79955 -7.19762 0.00566614 -0.00449398 -0.0127101 -3.52494 
31 -0.00042988 -0.0013268 -35.843 -4.04638 -4.04451 -7.52256 0.00567253 -0.0046049 -0.012515 -3.52388 
32 -0.000450704 -0.00138488 -33.268 -4.27921 -4.27669 -7.85339 0.00556693 -0.00494696 -0.0125849 -3.52264 
33 -0.000473713 -0.00140885 -30.6962 -4.48638 -4.48319 -8.17255 0.00536225 -0.00546862 -0.0129178 -3.52135 
34 -0.000503801 -0.00140426 -28.1277 -4.65936 -4.65553 -8.46286 0.00507014 -0.00609489 -0.0134914 -3.52011 
35 -0.000544616 -0.00137663 -25.5622 -4.79703 -4.79261 -8.71357 0.00470421 -0.00673633 -0.0142605 -3.51902 
36 -0.000598222 -0.00133119 -22.9995 -4.90317 -4.89825 -8.9215 0.00428072 -0.00730317 -0.0151607 -3.5181 
37 -0.000664943 -0.00127265 -20.4392 -4.98338 -4.97807 -9.08883 0.0038171 -0.00772134 -0.0161191 -3.51734 
38 -0.00074352 -0.0012049 -17.8808 -5.04319 -5.03761 -9.22048 0.00332954 -0.0079415 -0.0170653 -3.51674 
39 -0.000831508 -0.00113087 -15.324 -5.08732 -5.08159 -9.32213 0.00283145 -0.00794005 -0.0179389 -3.51627 
40 -0.000925745 -0.00105261 -12.7684 -5.11949 -5.11371 -9.39918 0.00233277 -0.00771469 -0.0186933 -3.51591 
41 -0.0010228 -0.000971314 -10.2137 -5.14251 -5.13677 -9.45624 0.00184005 -0.00727793 -0.0192955 -3.51565 
42 -0.00111933 -0.000887574 -7.65963 -5.15841 -5.15281 -9.49699 0.00135708 -0.00665074 -0.0197245 -3.51545 
43 -0.0012123 -0.0008015 -5.10607 -5.16864 -5.16324 -9.52419 0.000885727 -0.00585767 -0.0199687 -3.51532 
44 -0.0012991 -0.000712921 -2.55282 -5.17414 -5.16902 -9.53977 0.000426973 -0.00492396 -0.0200219 -3.51525 
45 0.0948906 2.15949 1.27626 -4.03849 -5.13574 -3.83928 -0.0508142 -0.443113 0.00781817 -3.5291 
46 0.068665 2.16057 3.82934 -4.0374 -5.13488 -3.8314 -0.037709 -0.442958 -0.00163749 -3.52911 
47 0.0424532 2.16131 6.38263 -4.03864 -5.13211 -3.81536 -0.0245298 -0.442728 -0.0113189 -3.52912 
48 0.016265 2.16172 8.93626 -4.04225 -5.1271 -3.79029 -0.0114027 -0.442437 -0.0215147 -3.52914 
49 -0.00988987 2.16178 11.4904 -4.04824 -5.11927 -3.75474 0.00152792 -0.442092 -0.0325445 -3.52917 
50 -0.0360019 2.1615 14.0453 -4.05657 -5.10777 -3.7066 0.0140847 -0.441692 -0.0447658 -3.5292 
51 -0.0620616 2.16088 16.601 -4.06698 -5.09126 -3.64308 0.0260411 -0.441224 -0.0585677 -3.52925 
52 -0.0880601 2.15992 19.158 -4.0788 -5.06779 -3.56059 0.0371036 -0.440666 -0.0743382 -3.52931 
53 -0.113989 2.15861 21.7166 -4.0906 -5.03446 -3.4548 0.0468978 -0.439981 -0.092374 -3.52939 
54 -0.139844 2.15699 24.277 -4.09954 -4.98704 -3.3209 0.0549702 -0.439119 -0.112684 -3.5295 
55 -0.165618 2.15506 26.8398 -4.10034 -4.91958 -3.15441 0.0608358 -0.438012 -0.134624 -3.52964 
56 -0.191311 2.1529 29.4054 -4.08412 -4.8244 -2.95286 0.0641216 -0.436556 -0.156374 -3.52983 
57 -0.216914 2.15059 31.9742 -4.03807 -4.69337 -2.7184 0.0648512 -0.434576 -0.174677 -3.5301 
58 -0.242409 2.14823 34.5463 -3.94871 -4.52207 -2.4601 0.0637817 -0.431793 -0.18599 -3.53045 
59 -0.267756 2.14586 37.1215 -3.8107 -4.3159 -2.19225 0.0623958 -0.427816 -0.190061 -3.53086 
60 -0.292908 2.1434 39.6995 -3.63242 -4.08954 -1.92641 0.0621797 -0.422338 -0.192009 -3.53127 
61 -0.317839 2.14077 42.2798 -3.4258 -3.85374 -1.6629 0.0637731 -0.415581 -0.198034 -3.53163 
62 -0.342594 2.13788 44.8621 -3.19729 -3.60538 -1.39033 0.0663622 -0.408275 -0.214831 -3.53193 
63 -0.367359 2.13495 47.4464 -2.91701 -3.29439 -1.10597 0.0666335 -0.403302 -0.234318 -3.53223 
64 -0.392512 2.13371 50.032 -2.4355 -2.79943 -0.494987 0.0637105 -0.417885 -0.202471 -3.53323 
65 -0.418483 2.1304 52.6263 -1.76561 -2.00568 -0.561476 0.0455586 -0.308992 -0.729803 -3.52457 
66 -0.44812 2.14653 55.1778 6.97643 7.73838 2.43102 0.0329749 -0.597337 1.7703 -3.02528 
67 0.649859 2.05055 -55.162 1.38933 0.842241 -0.678779 -0.188265 -0.0992005 1.20754 -3.26036 
68 0.633027 2.08274 -52.6122 -1.11186 -2.21862 -0.457734 -0.374484 -0.489286 -0.161414 -3.53566 
69 0.607028 2.08678 -50.0319 -2.0004 -2.5554 -0.868371 -0.170809 -0.427934 0.084539 -3.53399 
70 0.581428 2.08857 -47.4531 -2.63456 -3.07295 -1.20355 -0.127917 -0.400463 0.16028 -3.53289 
71 0.556721 2.09231 -44.871 -3.05431 -3.4435 -1.36404 -0.1079 -0.395416 0.202764 -3.53224 
72 0.532174 2.09679 -42.289 -3.35154 -3.72999 -1.59276 -0.0992114 -0.399927 0.213531 -3.53182 
73 0.507494 2.10144 -39.7082 -3.59337 -3.98675 -1.84302 -0.0975774 -0.406264 0.218758 -3.5314 
74 0.482591 2.10616 -37.1294 -3.7937 -4.22539 -2.10632 -0.101392 -0.41227 0.221683 -3.53097 
75 0.45747 2.11094 -34.5532 -3.94949 -4.44081 -2.37562 -0.109158 -0.417472 0.220013 -3.53055 
76 0.432173 2.1158 -31.9801 -4.05663 -4.62322 -2.63892 -0.118689 -0.422071 0.211092 -3.53018 
77 0.406738 2.12068 -29.4102 -4.11863 -4.76736 -2.88258 -0.127558 -0.426277 0.194937 -3.52989 
78 0.381187 2.12548 -26.8435 -4.14596 -4.87537 -3.09653 -0.133954 -0.430074 0.174118 -3.52966 
79 0.355528 2.13013 -24.2798 -4.15054 -4.9536 -3.2765 -0.137041 -0.433363 0.151645 -3.5295 
80 0.329767 2.13453 -21.7187 -4.14211 -5.00927 -3.42301 -0.136753 -0.43608 0.129703 -3.52938 
81 0.30391 2.13864 -19.1596 -4.12739 -5.04863 -3.53936 -0.133447 -0.438232 0.109471 -3.52929 
82 0.277966 2.14243 -16.6022 -4.11057 -5.07648 -3.62995 -0.127629 -0.439878 0.0913805 -3.52923 
83 0.251946 2.14589 -14.0462 -4.09405 -5.09627 -3.69922 -0.119808 -0.441095 0.0754177 -3.52918 
84 0.225862 2.14901 -11.4911 -4.07907 -5.11039 -3.75114 -0.110432 -0.441965 0.0613434 -3.52914 
85 0.199725 2.15179 -8.93689 -4.06623 -5.12044 -3.78894 -0.0998712 -0.442557 0.0488304 -3.52912 
86 0.173548 2.15422 -6.3832 -4.05574 -5.12746 -3.81513 -0.0884193 -0.442929 0.0375353 -3.52911 
87 0.147343 2.15632 -3.82987 -4.04764 -5.13213 -3.83154 -0.0763089 -0.443123 0.0271316 -3.5291 
88 0.12112 2.15807 -1.27677 -4.0419 -5.13483 -3.83937 -0.0637239 -0.443176 0.0173187 -3.5291 
89 0.217737 4.3262 -0.000593838 -3.37442 -4.74002 -3.30071 -0.0719311 -0.920896 0.0415554 -3.53368 
90 0.28819 6.49863 1.27548 -2.76425 -4.34147 -2.8632 -0.0737921 -1.34761 0.0525993 -3.53385 
91 2.20761 2.7371 -0.000177997 -3.37498 -3.5445 -3.05252 -0.416237 -0.321375 0.252616 -3.52985 
92 2.17422 2.76368 2.55286 -3.36383 -3.55471 -3.04936 -0.413882 -0.327075 0.245019 -3.52985 
93 2.29416 4.92839 1.27542 -2.71352 -3.57195 -2.7283 -0.342731 -0.794952 0.0183048 -3.53338 
94 4.29086 3.33702 1.27692 -3.38877 -2.89869 -2.72711 -0.496277 -0.205681 0.762706 -3.53337 
95 0.165249 4.3286 2.55229 -3.37248 -4.7412 -3.29728 -0.0554548 -0.921242 0.0232767 -3.53368 
96 0.112766 4.3303 5.10529 -3.37463 -4.74259 -3.28782 -0.0388423 -0.921548 0.0047517 -3.53368 
97 0.209381 6.50164 3.82815 -2.76475 -4.34438 -2.85813 -0.0548938 -1.34848 0.0264339 -3.53385 
98 2.23421 4.95576 3.8284 -2.70598 -3.58172 -2.72288 -0.331305 -0.797207 0.00228308 -3.53338 
99 0.130588 6.5036 6.38099 -2.77002 -4.349 -2.84853 -0.0359502 -1.34953 -0.000351422 -3.53384 
100 4.25002 3.38871 3.82991 -3.37693 -2.91317 -2.72066 -0.500665 -0.220312 0.756521 -3.53337 
101 2.14049 2.78979 5.10602 -3.3548 -3.56631 -3.03941 -0.40997 -0.332856 0.237275 -3.52985 
102 2.10642 2.8154 7.65945 -3.34799 -3.57916 -3.02214 -0.404435 -0.338942 0.229101 -3.52984 
103 2.17391 4.98228 6.38157 -2.70213 -3.59298 -2.71134 -0.318316 -0.79967 -0.014336 -3.53337 
104 4.20848 3.4398 6.38309 -3.36753 -2.93041 -2.708 -0.503062 -0.235228 0.750046 -3.53337 
105 0.0603082 4.33132 7.65855 -3.38106 -4.74407 -3.27184 -0.0222013 -0.921841 -0.014464 -3.53368 
106 0.00789396 4.33163 10.2122 -3.39204 -4.74546 -3.24842 -0.00564871 -0.922137 -0.034851 -3.53368 
107 0.0518358 6.5045 8.93412 -2.78037 -4.3553 -2.83386 -0.0170626 -1.35079 -0.0283341 -3.53382 
108 2.11329 5.00792 8.93506 -2.70221 -3.60566 -2.69306 -0.303727 -0.802558 -0.0320326 -3.53337 
109 -0.0268477 6.50431 11.4877 -2.79626 -4.36324 -2.8132 0.00165258 -1.35232 -0.0581467 -3.53379 
110 4.16627 3.49026 8.93659 -3.36074 -2.9504 -2.68847 -0.503294 -0.250814 0.742962 -3.53337 
111 2.07204 2.84052 10.2133 -3.34355 -3.59311 -2.99654 -0.397149 -0.345572 0.22018 -3.52983 
112 2.03734 2.86511 12.7677 -3.34161 -3.60792 -2.96113 -0.387923 -0.353016 0.210146 -3.52982 
113 2.05236 5.03267 11.489 -2.70657 -3.61962 -2.66698 -0.287454 -0.806112 -0.0513489 -3.53336 
114 4.12339 3.54007 11.4906 -3.35676 -2.97318 -2.66098 -0.501099 -0.267487 0.734902 -3.53337 
115 -0.0444575 4.33125 12.7664 -3.40792 -4.74642 -3.21615 0.0106776 -0.922443 -0.0569415 -3.53367 
116 -0.0967265 4.33015 15.3214 -3.42907 -4.74636 -3.17303 0.0266076 -0.92274 -0.0813195 -3.53367 
117 -0.105435 6.50305 14.0418 -2.81827 -4.37266 -2.78519 0.0200566 -1.35413 -0.0904902 -3.53376 
118 1.99115 5.05649 14.0436 -2.71564 -3.6346 -2.63161 -0.269373 -0.810611 -0.0729026 -3.53335 
119 -0.183896 6.50069 16.5967 -2.847 -4.38318 -2.74789 0.0379853 -1.3562 -0.126126 -3.53371 
120 4.07985 3.58919 14.0452 -3.35579 -2.99877 -2.62402 -0.496129 -0.285722 0.725418 -3.53336 
121 2.00233 2.88916 15.323 -3.34224 -3.62316 -2.91385 -0.376512 -0.36158 0.198572 -3.5298 
122 1.96702 2.91264 17.8793 -3.34528 -3.63806 -2.85201 -0.362643 -0.371611 0.184981 -3.52978 
123 1.92965 5.07935 16.5991 -2.72981 -3.65017 -2.58488 -0.249335 -0.816372 -0.097381 -3.53334 
124 4.03564 3.63759 16.6007 -3.35795 -3.02702 -2.57558 -0.487969 -0.306055 0.71397 -3.53335 
125 -0.148893 4.32834 17.8774 -3.45573 -4.74429 -3.11639 0.0419254 -0.922977 -0.108595 -3.53366 
126 -0.200938 4.32582 20.4346 -3.48775 -4.73851 -3.04277 0.0563501 -0.923061 -0.139318 -3.53365 
127 -0.262202 6.49722 19.1526 -2.88292 -4.394 -2.69863 0.0552488 -1.35845 -0.165822 -3.53366 
128 1.8679 5.10122 19.1557 -2.74933 -3.6655 -2.52414 -0.227194 -0.82375 -0.125497 -3.53332 
129 -0.340318 6.49266 21.7098 -2.92608 -4.40356 -2.63384 0.0716319 -1.36064 -0.210213 -3.5336 
130 3.99078 3.68522 19.1573 -3.36315 -3.05754 -2.51316 -0.47617 -0.329072 0.699923 -3.53333 
131 1.93142 2.93554 20.4369 -3.35018 -3.65131 -2.77232 -0.346049 -0.383462 0.168878 -3.52975 
132 1.89553 2.95783 22.9962 -3.35553 -3.66067 -2.67095 -0.32656 -0.397418 0.149858 -3.52971 
133 1.80591 5.12208 21.7137 -2.77402 -3.67913 -2.44618 -0.202865 -0.833115 -0.157869 -3.53329 
134 3.94527 3.73205 21.7153 -3.37085 -3.08933 -2.43377 -0.460343 -0.355353 0.682587 -3.53331 
135 -0.252842 4.32261 22.9935 -3.52413 -4.72628 -2.94788 0.0695119 -0.922863 -0.173795 -3.53365 
136 -0.304592 4.31874 25.5543 -3.5622 -4.70316 -2.82683 0.0809257 -0.922239 -0.211718 -3.53366 
137 -0.418214 6.48702 24.2686 -2.97554 -4.40901 -2.54888 0.0868849 -1.36244 -0.259506 -3.53353 
138 1.7437 5.14192 24.2735 -2.8028 -3.68863 -2.3473 -0.176443 -0.844772 -0.194772 -3.53326 
139 -0.495859 6.4804 26.8295 -3.02846 -4.40547 -2.4381 0.100683 -1.3634 -0.312949 -3.53348 
140 3.89912 3.77804 24.275 -3.37963 -3.12044 -2.33403 -0.440319 -0.385287 0.661363 -3.53327 
141 1.85939 2.97953 25.5576 -3.35837 -3.66242 -2.54385 -0.304261 -0.413478 0.12786 -3.52966 
142 1.82303 3.00067 28.1215 -3.35317 -3.65061 -2.38756 -0.27975 -0.430955 0.103657 -3.52961 
143 1.68131 5.16077 26.8355 -2.83289 -3.69 -2.22375 -0.148413 -0.858764 -0.235654 -3.53321 
144 3.8524 3.82321 26.8369 -3.38647 -3.14724 -2.21044 -0.416425 -0.418691 0.63607 -3.53322 
145 -0.35618 4.31429 28.1176 -3.59628 -4.6624 -2.67476 0.0899909 -0.921055 -0.251567 -3.5337 
146 -0.407599 4.30942 30.6839 -3.61596 -4.5945 -2.48844 0.0960931 -0.919161 -0.289941 -3.53378 
147 -0.573233 6.47295 29.3929 -3.07873 -4.38503 -2.29547 0.112535 -1.36308 -0.36804 -3.53345 
148 1.61877 5.17874 29.4 -2.85846 -3.67708 -2.07234 -0.119955 -0.874448 -0.278367 -3.53316 
149 -0.650323 6.46495 31.9593 -3.11502 -4.33585 -2.11633 0.121686 -1.36116 -0.419784 -3.53348 
150 3.8052 3.8676 29.4014 -3.38562 -3.16343 -2.05981 -0.389831 -0.454106 0.607552 -3.53316 
151 1.78654 3.02136 30.6883 -3.33062 -3.61641 -2.20047 -0.254456 -0.447887 0.0795663 -3.52956 
152 1.75007 3.04178 33.2584 -3.27736 -3.5486 -1.9847 -0.230778 -0.460747 0.0598379 -3.52954 
153 1.5562 5.19607 31.9676 -2.86901 -3.64079 -1.89159 -0.0932369 -0.88975 -0.318293 -3.5331 
154 3.75773 3.91136 31.9689 -3.36714 -3.15895 -1.88025 -0.362846 -0.487942 0.578538 -3.53309 
155 -0.458837 4.30435 33.2535 -3.60535 -4.48807 -2.26915 0.0989176 -0.91621 -0.321608 -3.53395 
156 -0.509852 4.29929 35.8265 -3.54649 -4.33417 -2.02567 0.0989569 -0.911362 -0.341999 -3.53421 
157 -0.727107 6.45679 34.5292 -3.11945 -4.24236 -1.90107 0.127229 -1.35716 -0.461079 -3.53361 
158 1.49377 5.21311 34.5385 -2.84824 -3.56896 -1.68328 -0.0712776 -0.90049 -0.348423 -3.53307 
159 -0.803517 6.44885 37.1028 -3.07038 -4.08984 -1.65994 0.128801 -1.34977 -0.486229 -3.53387 
160 3.71028 3.95474 34.5396 -3.31581 -3.11976 -1.67289 -0.338689 -0.514367 0.554034 -3.53306 
161 1.7138 3.06213 35.8319 -3.17936 -3.43708 -1.74752 -0.211432 -0.465711 0.0489932 -3.5296 
162 1.67789 3.08253 38.4084 -3.03096 -3.28 -1.49977 -0.197585 -0.462452 0.0466033 -3.52976 
163 1.43172 5.23026 37.1128 -2.777 -3.44877 -1.45439 -0.0568053 -0.901413 -0.362828 -3.53312 
164 3.66324 3.99803 37.1138 -3.21337 -3.03149 -1.44442 -0.320194 -0.527992 0.539196 -3.53311 
165 -0.560559 4.29431 38.4027 -3.43027 -4.13513 -1.7733 0.0978207 -0.903455 -0.352651 -3.53456 
166 -0.610868 4.28924 40.9816 -3.26406 -3.90703 -1.5245 0.0977028 -0.89197 -0.362599 -3.53491 
167 -0.879425 6.44122 39.6796 -2.95591 -3.87788 -1.41292 0.127634 -1.33718 -0.498343 -3.53424 
168 1.37028 5.24771 39.6901 -2.64455 -3.27552 -1.21684 -0.0502241 -0.891262 -0.364827 -3.53329 
169 -0.954725 6.43363 42.2588 -2.78429 -3.62667 -1.17783 0.12646 -1.31936 -0.51024 -3.5346 
170 3.61686 4.04137 39.6911 -3.0495 -2.88909 -1.20723 -0.307786 -0.530078 0.532576 -3.53328 
171 1.64235 3.1029 40.9875 -2.84049 -3.08628 -1.24928 -0.1876 -0.4563 0.0445778 -3.52999 
172 1.60709 3.12309 43.5686 -2.61788 -2.86407 -0.993753 -0.178964 -0.453888 0.034508 -3.53027 
173 1.30951 5.26532 42.2698 -2.45728 -3.05843 -0.980833 -0.0487101 -0.876564 -0.368934 -3.53354 
174 3.57109 4.08469 42.2707 -2.83156 -2.70106 -0.973134 -0.299284 -0.530526 0.5232 -3.53352 
175 -0.660768 4.2839 43.5623 -3.05894 -3.66041 -1.27883 0.0997574 -0.877772 -0.38027 -3.53522 
176 -0.71044 4.27825 46.1446 -2.82681 -3.39352 -1.01649 0.103185 -0.863188 -0.41104 -3.53548 
177 -1.02948 6.42586 44.8394 -2.56255 -3.34342 -0.961463 0.126719 -1.29859 -0.527183 -3.53495 
178 1.24927 5.28292 44.851 -2.22233 -2.80241 -0.747985 -0.0504676 -0.865837 -0.386753 -3.53385 
179 -1.10408 6.41826 47.4203 -2.2978 -3.01729 -0.775928 0.129269 -1.27959 -0.539314 -3.53527 
180 3.52571 4.1279 44.8519 -2.56479 -2.47485 -0.747912 -0.291995 -0.53835 0.50237 -3.53382 
181 1.57188 3.14309 46.1516 -2.36754 -2.61616 -0.715777 -0.171226 -0.46293 0.00790131 -3.53053 
182 1.53655 3.16331 48.7363 -2.09052 -2.36008 -0.344956 -0.183523 -0.486321 -0.0317672 -3.53014 
183 1.18907 5.30053 47.4331 -1.94582 -2.50494 -0.517032 -0.0635737 -0.872028 -0.431364 -3.53411 
184 3.48043 4.17108 47.4338 -2.24246 -2.22036 -0.539539 -0.285787 -0.564486 0.458616 -3.53402 
185 -0.760431 4.27333 48.7285 -2.60423 -3.07468 -0.670473 0.0967462 -0.856541 -0.415394 -3.53514 
186 -0.811621 4.26877 51.3169 -1.98822 -2.35128 0.311428 0.0839156 -0.841264 -0.653287 -3.53805 
187 -1.17889 6.41384 50.0002 -2.0599 -2.54077 -0.334567 0.0895452 -1.28322 -0.617729 -3.53572 
188 1.12775 5.31799 50.0156 -1.56885 -2.07885 -0.0201373 -0.111077 -0.949121 -0.597646 -3.53483 
189 -1.25707 6.40546 52.5877 -1.61241 -2.48693 0.643191 0.17571 -1.31611 -0.613209 -3.53282 
190 3.43505 4.21346 50.0156 -1.75814 -1.85229 -0.0363758 -0.309378 -0.671665 0.311967 -3.5349 
191 1.50027 3.18358 51.3264 -1.43156 -1.70137 0.65913 -0.172584 -0.54779 -0.133324 -3.53273 
192 1.46587 3.20964 53.9052 0.0267623 0.95406 -0.795647 0.566333 -0.560924 0.139062 -3.37565 
193 1.06597 5.33731 52.6041 -1.24907 -1.89846 0.44167 -0.236941 -0.801367 -0.41089 -3.52779 
194 3.38747 4.26008 52.6041 -1.41009 -1.71338 0.390011 -0.390725 -0.639515 0.587235 -3.52746 
195 -0.866323 4.2769 53.8949 -0.0509227 -0.206025 -1.18048 0.0793496 -1.26165 1.02745 -3.38131 
196 1.3298 4.1174 -56.3442 5.0694 2.90568 1.60245 -1.25468 -0.273899 0.110252 -2.79034 
197 -1.33605 6.40133 55.1665 4.18025 2.79735 1.29004 0.319952 -1.52316 0.197762 -3.26107 
198 1.00488 5.36129 55.1754 5.64185 6.63178 2.70763 0.369758 -0.636486 -0.0327591 -3.15047 
199 1.98371 6.26223 -55.1334 6.9398 9.11553 2.92898 0.134208 -0.847893 -0.525617 -3.02309 
200 3.34328 4.30996 55.1754 5.53061 7.35744 2.86901 0.118743 -0.278707 0.562551 -3.15115 
201 2.87095 2.09325 -56.362 4.04252 6.00649 1.88089 -3.16452 0.252593 0.341743 -2.79939 
202 2.84551 2.1252 -53.8874 0.164873 0.763201 -3.02657 -0.982157 -0.732835 -0.162384 -3.51266 
203 3.53831 4.21674 -55.1525 6.03164 6.27389 1.75942 0.302439 -1.21955 -0.0444779 -3.1433 
204 5.07312 2.13635 -55.1525 6.04996 7.03884 2.00322 0.446078 -0.528131 0.080506 -3.14511 
205 1.29262 4.16451 -53.8815 0.861255 -0.348453 -3.67504 -0.408957 -0.573876 0.839011 -3.51412 
206 1.24176 4.17585 -51.3147 -1.28658 -1.91072 -0.372633 -0.214925 -0.88074 0.219903 -3.53903 
207 1.90264 6.26187 -52.5941 -0.917975 -1.45699 -0.573375 -0.184219 -1.16808 0.819965 -3.52791 
208 3.4607 4.22944 -52.6036 -0.74877 -0.925805 0.0956953 -0.677549 -0.496122 0.191335 -3.53019 
209 1.82403 6.27282 -50.0101 -1.64168 -2.32544 -0.261078 -0.200479 -1.28053 0.434316 -3.53673 
210 5.01221 2.17771 -52.6036 -1.34179 -0.348435 0.0548733 -0.502578 0.0191307 0.991482 -3.52952 
211 2.80522 2.14769 -51.32 -1.10337 -0.946529 -0.111613 -0.277999 -0.333103 0.261622 -3.53414 
212 2.77231 2.1747 -48.7404 -1.96604 -1.83684 -0.542654 -0.291524 -0.218991 0.343049 -3.53087 
213 3.40036 4.25787 -50.02 -1.43049 -1.65376 -0.137758 -0.408504 -0.707014 0.28822 -3.53496 
214 4.971 2.23184 -50.02 -1.84288 -1.27348 -0.111873 -0.29636 0.0232287 0.838324 -3.535 
215 1.1897 4.1805 -48.7355 -2.17658 -2.75568 -0.783582 -0.180233 -0.847604 0.288043 -3.5364 
216 1.13985 4.18674 -46.1539 -2.63482 -3.19405 -0.972565 -0.16535 -0.83156 0.404799 -3.53603 
217 1.74865 6.27877 -47.4305 -2.09918 -2.83436 -0.672204 -0.213497 -1.2393 0.548909 -3.53588 
218 3.3451 4.28765 -47.441 -1.8963 -2.20928 -0.559242 -0.301084 -0.636136 0.339749 -3.53413 
219 1.67478 6.29068 -44.8493 -2.46841 -3.1947 -0.861487 -0.200775 -1.243 0.606315 -3.53533 
220 4.93493 2.28466 -47.4403 -2.31891 -1.78962 -0.537741 -0.212251 0.110192 0.869009 -3.53419 
221 2.74215 2.20219 -46.1593 -2.3609 -2.27111 -0.735707 -0.232406 -0.157682 0.396614 -3.53073 
222 2.71386 2.23099 -43.5774 -2.67197 -2.59613 -0.947202 -0.216738 -0.1471 0.416154 -3.53036 
223 3.29166 4.32 -44.8603 -2.23177 -2.57695 -0.714229 -0.260898 -0.622575 0.374468 -3.53391 
224 4.90214 2.3379 -44.8594 -2.65356 -2.14697 -0.71924 -0.178658 0.147082 0.899781 -3.53392 
225 1.09075 4.19541 -43.5719 -2.9724 -3.51596 -1.20091 -0.153003 -0.839854 0.429048 -3.53552 
226 1.04154 4.20475 -40.9907 -3.23073 -3.79233 -1.44218 -0.150564 -0.85346 0.43458 -3.53508 
227 1.60109 6.30426 -42.2682 -2.74999 -3.50256 -1.08901 -0.200011 -1.26107 0.620824 -3.53483 
228 3.23915 4.35378 -42.2793 -2.50436 -2.87535 -0.914158 -0.243995 -0.625571 0.391369 -3.5336 
229 1.52693 6.3185 -39.6882 -2.95953 -3.77084 -1.33294 -0.206519 -1.28066 0.623511 -3.53437 
230 4.87086 2.39201 -42.2784 -2.93585 -2.43101 -0.925383 -0.168258 0.158136 0.924476 -3.53359 
231 2.6861 2.2605 -40.9961 -2.92641 -2.85944 -1.17754 -0.214199 -0.14598 0.429425 -3.53005 
232 2.65841 2.29058 -38.4164 -3.13825 -3.07613 -1.41983 -0.218974 -0.146087 0.440325 -3.5298 
233 3.18685 4.3886 -39.6993 -2.72045 -3.11711 -1.13795 -0.238512 -0.6312 0.40103 -3.53332 
234 4.84014 2.44708 -39.6983 -3.17143 -2.65049 -1.14965 -0.169012 0.162248 0.945813 -3.53332 
235 0.991916 4.21433 -38.4111 -3.42852 -4.03765 -1.69318 -0.155171 -0.866545 0.434842 -3.53467 
236 0.941848 4.2241 -35.8339 -3.56748 -4.24873 -1.94874 -0.164132 -0.877292 0.42891 -3.5343 
237 1.45211 6.33323 -37.1105 -3.10019 -3.99527 -1.58502 -0.2167 -1.29709 0.61768 -3.53397 
238 3.13451 4.42435 -37.1212 -2.88047 -3.30234 -1.37183 -0.241705 -0.638286 0.402609 -3.53314 
239 1.3767 6.34845 -34.5359 -3.17294 -4.16483 -1.83169 -0.226438 -1.30989 0.598391 -3.53366 
240 4.80971 2.5031 -37.1203 -3.35746 -2.80834 -1.38275 -0.179271 0.161319 0.959437 -3.53314 
241 2.6307 2.3212 -35.8391 -3.30657 -3.24654 -1.66643 -0.23059 -0.148781 0.445627 -3.52963 
242 2.60296 2.35228 -33.2646 -3.42697 -3.36838 -1.90706 -0.248919 -0.157344 0.441501 -3.52954 
243 3.08206 4.46091 -34.546 -2.98234 -3.42966 -1.6022 -0.252984 -0.650062 0.390895 -3.53306 
244 4.77948 2.55996 -34.545 -3.48875 -2.90651 -1.61269 -0.199237 0.15041 0.960319 -3.53306 
245 0.891406 4.23409 -33.2599 -3.64716 -4.41663 -2.19755 -0.174238 -0.885892 0.412734 -3.534 
246 0.840673 4.24419 -30.6892 -3.67516 -4.53858 -2.42609 -0.182609 -0.893113 0.385262 -3.5338 
247 1.30081 6.36404 -31.9648 -3.18785 -4.27753 -2.05678 -0.232812 -1.32009 0.563327 -3.53348 
248 3.02941 4.498 -31.9741 -3.03091 -3.50618 -1.81645 -0.270743 -0.667454 0.364752 -3.53306 
249 1.22452 6.37966 -29.3973 -3.1629 -4.34307 -2.24929 -0.234894 -1.32821 0.516025 -3.53341 
250 4.7493 2.61739 -31.973 -3.5679 -2.9543 -1.82725 -0.227405 0.127117 0.948345 -3.53306 
251 2.57512 2.38365 -30.6934 -3.50105 -3.44576 -2.13051 -0.272257 -0.172374 0.427756 -3.52953 
252 2.54704 2.41508 -28.1255 -3.53751 -3.48912 -2.32839 -0.297738 -0.191482 0.407735 -3.52957 
253 2.97637 4.53522 -29.4056 -3.03878 -3.54587 -2.00633 -0.292055 -0.688011 0.328687 -3.53311 
254 4.71888 2.67505 -29.4044 -3.60549 -2.96696 -2.01782 -0.260441 0.094246 0.927967 -3.5331 
255 0.789694 4.25421 -28.1219 -3.66635 -4.62048 -2.62475 -0.187544 -0.899338 0.349625 -3.53368 
256 0.738491 4.26394 -25.5576 -3.63603 -4.67204 -2.78999 -0.188518 -0.904555 0.310391 -3.53363 
257 1.14785 6.39494 -26.833 -3.1157 -4.37518 -2.40597 -0.232926 -1.33424 0.462553 -3.53342 
258 2.92281 4.57218 -26.8401 -3.02022 -3.56237 -2.16851 -0.313722 -0.708688 0.288688 -3.53317 
259 1.07083 6.40955 -24.2714 -3.05953 -4.38621 -2.52914 -0.227419 -1.33832 0.408272 -3.53346 
260 4.68794 2.73266 -26.8388 -3.61403 -2.95912 -2.18041 -0.29475 0.0567119 0.904157 -3.53316 
261 2.51858 2.44636 -25.5606 -3.54741 -3.51005 -2.49673 -0.322662 -0.211708 0.385387 -3.52962 
262 2.48966 2.47736 -22.9984 -3.54062 -3.51799 -2.63546 -0.345212 -0.230938 0.363523 -3.52967 
263 2.86863 4.60861 -24.2774 -2.98713 -3.56592 -2.30313 -0.333234 -0.727389 0.249255 -3.53323 
264 4.65624 2.79002 -24.2761 -3.60429 -2.94169 -2.31475 -0.327693 0.0188005 0.880445 -3.53321 
265 0.687073 4.27319 -22.9961 -3.596 -4.70274 -2.92303 -0.185732 -0.908722 0.271302 -3.5336 
266 0.635453 4.28186 -20.4367 -3.55395 -4.72006 -3.02765 -0.179698 -0.911919 0.234609 -3.5336 
267 0.993475 6.42327 -21.7121 -3.00294 -4.38532 -2.62377 -0.218882 -1.34088 0.356617 -3.53353 
268 2.81377 4.64433 -21.7171 -2.94792 -3.56324 -2.41236 -0.349142 -0.743162 0.212849 -3.53327 
269 0.91583 6.43598 -19.1546 -2.95069 -4.37863 -2.69537 -0.207806 -1.34243 0.309232 -3.53359 
270 4.62367 2.847 -21.7157 -3.58426 -2.92176 -2.42299 -0.357808 -0.0167852 0.858774 -3.53325 
271 2.46023 2.50799 -20.4385 -3.52447 -3.51949 -2.74695 -0.364495 -0.248098 0.343607 -3.52972 
272 2.43027 2.5382 -17.8804 -3.50384 -3.5186 -2.83476 -0.380285 -0.262867 0.326148 -3.52975 
273 2.75824 4.67926 -19.1586 -2.90788 -3.55844 -2.49929 -0.360912 -0.75587 0.180394 -3.5333 
274 4.59016 2.90353 -19.1572 -3.55928 -2.90339 -2.50848 -0.384519 -0.0487948 0.839935 -3.53329 
275 0.583651 4.28986 -17.8791 -3.51426 -4.7293 -3.10849 -0.170999 -0.914321 0.201291 -3.53361 
276 0.531686 4.29717 -15.3229 -3.47907 -4.73395 -3.17001 -0.160186 -0.916119 0.171492 -3.53363 
277 0.837929 6.44762 -16.5985 -2.90499 -4.36984 -2.74894 -0.194662 -1.34338 0.26652 -3.53366 
278 2.70207 4.71335 -16.6017 -2.86997 -3.55381 -2.56733 -0.368615 -0.765814 0.151902 -3.53332 
279 0.759805 6.45816 -14.0435 -2.8665 -4.36108 -2.7886 -0.179886 -1.34404 0.228189 -3.53371 
280 4.55571 2.95957 -16.6003 -3.53271 -2.88862 -2.57488 -0.407783 -0.0769663 0.824019 -3.53331 
281 2.39981 2.56797 -15.3238 -3.48175 -3.51763 -2.90272 -0.392743 -0.275359 0.311109 -3.52978 
282 2.36885 2.59729 -12.7684 -3.45994 -3.51779 -2.95434 -0.402203 -0.285886 0.2982 -3.5298 
283 2.64529 4.74659 -14.046 -2.83565 -3.55055 -2.61969 -0.372622 -0.773472 0.12694 -3.53334 
284 4.52034 3.0151 -14.0446 -3.5065 -2.87823 -2.62563 -0.427817 -0.101589 0.810749 -3.53333 
285 0.479582 4.30377 -12.7678 -3.44919 -4.73616 -3.2161 -0.147731 -0.917478 0.144902 -3.53364 
286 0.427361 4.30966 -10.2135 -3.42469 -4.7372 -3.24987 -0.134025 -0.918521 0.121013 -3.53365 
287 0.681494 6.46761 -11.4893 -2.83503 -4.35344 -2.81752 -0.163858 -1.34457 0.193615 -3.53376 
288 2.58795 4.77898 -11.4913 -2.80545 -3.54919 -2.65921 -0.373409 -0.779336 0.104905 -3.53335 
289 0.603026 6.47595 -8.93574 -2.81006 -4.34742 -2.83808 -0.14689 -1.34509 0.162073 -3.53379 
290 4.48409 3.0701 -11.4898 -3.48167 -2.87229 -2.66364 -0.444939 -0.123198 0.799695 -3.53335 
291 2.33743 2.62616 -10.2138 -3.43934 -3.51959 -2.99267 -0.409044 -0.294821 0.28704 -3.52982 
292 2.30558 2.65457 -7.65988 -3.42039 -3.52321 -3.02009 -0.413616 -0.30253 0.277242 -3.52983 
293 2.53009 4.81053 -8.93722 -2.77943 -3.54989 -2.6882 -0.371441 -0.783851 0.0851696 -3.53336 
294 4.447 3.12457 -8.93574 -3.45875 -2.87056 -2.6913 -0.45947 -0.142395 0.790395 -3.53336 
295 0.375045 4.31484 -7.65977 -3.4053 -4.73781 -3.27374 -0.119377 -0.919333 0.0992606 -3.53366 
296 0.322655 4.31932 -5.10649 -3.39066 -4.73837 -3.28945 -0.104027 -0.919973 0.0790972 -3.53367 
297 0.524432 6.48322 -6.38261 -2.79097 -4.34322 -2.85196 -0.12923 -1.34563 0.132841 -3.53382 
298 2.47175 4.84124 -6.38369 -2.75742 -3.55263 -2.7085 -0.367118 -0.787389 0.0671451 -3.53337 
299 0.445743 6.48942 -3.82979 -2.77722 -4.34085 -2.86034 -0.111068 -1.34621 0.10525 -3.53384 
300 4.4091 3.17851 -6.3822 -3.43795 -2.87268 -2.7104 -0.471692 -0.159754 0.782411 -3.53336 
301 2.27331 2.68254 -5.1064 -3.4033 -3.52863 -3.03844 -0.416208 -0.309341 0.268448 -3.52984 
302 2.24065 2.71005 -2.55322 -3.38815 -3.53577 -3.04899 -0.417035 -0.315539 0.260336 -3.52985 
303 2.41296 4.87112 -3.8305 -2.73921 -3.5573 -2.72142 -0.360752 -0.790254 0.0503033 -3.53337 
304 4.37042 3.2319 -3.829 -3.41933 -2.87826 -2.72224 -0.481818 -0.175793 0.775356 -3.53337 
305 0.270213 4.32311 -2.55348 -3.38045 -4.73908 -3.2982 -0.0881623 -0.920483 0.0600168 -3.53368 
306 0.366986 6.49455 -1.27713 -2.76839 -4.34028 -2.86396 -0.09255 -1.34686 0.0786908 -3.53385 
307 2.35376 4.90017 -1.2775 -2.7246 -3.56378 -2.72786 -0.352573 -0.792702 0.0341694 -3.53337 
308 4.331 3.28474 -1.27601 -3.40293 -2.887 -2.72766 -0.489991 -0.190966 0.768889 -3.53337 
309 2.43916 7.09236 -0.00114317 -2.20518 -3.36117 -2.39773 -0.313394 -1.19726 -0.181301 -3.53293 