ITEM: TIMESTEP
0
ITEM: NUMBER OF ATOMS
37664
ITEM: BOX BOUNDS ff ff ff
-100 100
-100 100
-156.15 156.15
ITEM: ATOMS id x y z v_peratom_sxx v_peratom_syy v_peratom_szz v_peratom_sxy v_peratom_sxz v_peratom_syz c_atomPE 
1 -0.00298968 -0.00111961 -0.00271502 -5.18276 -5.16869 -9.54401 -0.00253762 0.0198723 -0.0468702 -3.51524 
2 -0.00333459 -0.000946121 2.55045 -5.17834 -5.16626 -9.53753 -0.00362731 0.0221058 -0.0456808 -3.51527 
3 -0.00364377 -0.000763634 5.10376 -5.16982 -5.15992 -9.52094 -0.00468844 0.0242654 -0.0440122 -3.51534 
4 -0.00391493 -0.000570339 7.65735 -5.15687 -5.14931 -9.49348 -0.00568848 0.0262656 -0.0418851 -3.51547 
5 -0.00414633 -0.000364827 10.2114 -5.1388 -5.13368 -9.45372 -0.00659783 0.0280426 -0.0393336 -3.51566 
6 -0.00433649 -0.000146469 12.7661 -5.11451 -5.11192 -9.39945 -0.00739278 0.0295593 -0.0364166 -3.51591 
7 -0.00448396 8.39855e-05 15.3216 -5.08238 -5.08234 -9.32758 -0.00805531 0.0308012 -0.0332254 -3.51624 
8 -0.00458694 0.000323801 17.8782 -5.04009 -5.0426 -9.23403 -0.00857191 0.0317714 -0.029886 -3.51667 
9 -0.00464307 0.000567785 20.4363 -4.9845 -4.98949 -9.11373 -0.00893309 0.0324869 -0.0265564 -3.51722 
10 -0.00464913 0.000808126 22.9961 -4.91139 -4.91872 -8.96081 -0.00913422 0.0329796 -0.0234154 -3.5179 
11 -0.00460097 0.00103466 25.5581 -4.81534 -4.8248 -8.76928 -0.0091775 0.0333003 -0.0206444 -3.51875 
12 -0.00449343 0.00123558 28.1227 -4.69002 -4.70133 -8.53479 -0.00907392 0.0335211 -0.0184019 -3.51978 
13 -0.00432045 0.00139855 30.6903 -4.52966 -4.54245 -8.25771 -0.0088433 0.03373 -0.0167966 -3.52097 
14 -0.00407532 0.00151173 33.2612 -4.33278 -4.34664 -7.94679 -0.00850988 0.0340166 -0.0158708 -3.52226 
15 -0.00375095 0.00156422 35.8352 -4.10734 -4.12184 -7.61956 -0.00809471 0.0344551 -0.0156118 -3.52353 
16 -0.00334011 0.00154532 38.4121 -3.86945 -3.88411 -7.29437 -0.007608 0.0350798 -0.0159864 -3.52463 
17 -0.00283531 0.0014425 40.9914 -3.6307 -3.64505 -6.97763 -0.00704163 0.0358704 -0.0169879 -3.52551 
18 -0.00222555 0.00123757 43.5729 -3.39205 -3.40553 -6.65658 -0.00634949 0.0368386 -0.0186975 -3.52623 
19 -0.00149073 0.000901208 46.1568 -3.1283 -3.13998 -6.29459 -0.00537022 0.0380239 -0.0212625 -3.52697 
20 -0.000610387 0.000388305 48.7435 -2.74708 -2.75365 -5.85672 -0.00300432 0.038463 -0.0246141 -3.52784 
21 5.95933e-07 -4.11185e-08 51.3317 -1.92301 -1.9225 -4.91842 0.000225732 -0.0019727 0.0013188 -3.53203 
22 4.01304e-07 -1.42881e-06 53.9138 -0.852004 -0.85202 -8.91778 -2.11957e-06 -3.50024e-05 -7.377e-05 -3.48168 
23 8.71386e-07 -1.98378e-06 56.3885 1.68556 1.68557 1.87675 -2.06787e-05 2.9427e-05 3.30073e-07 -2.55581 
24 -1.23087e-07 -1.12453e-06 -53.8876 -2.60678 -2.60681 -6.54959 -1.54459e-05 7.10609e-06 -3.92316e-05 -3.40183 
25 1.02659e-07 -1.55837e-06 -51.3239 -2.07953 -2.08004 -5.58621 -0.000557697 -0.00105116 0.00244378 -3.52874 
26 0.000332945 -0.000673248 -48.7464 -2.7131 -2.70685 -6.17176 0.00672453 0.0204104 -0.0421674 -3.52631 
27 0.000793172 -0.00156399 -46.1651 -3.04259 -3.03253 -6.37526 0.0120985 0.0199184 -0.0378532 -3.52668 
28 0.00110301 -0.00219375 -43.583 -3.323 -3.31122 -6.6354 0.0135204 0.0211316 -0.0334325 -3.52625 
29 0.00131267 -0.00262358 -41.0018 -3.57689 -3.56367 -6.92169 0.0138919 0.0220757 -0.0299875 -3.52565 
30 0.00143783 -0.00290092 -38.4223 -3.82526 -3.81068 -7.22761 0.0137481 0.0223831 -0.027583 -3.52483 
31 0.00148808 -0.00305714 -35.8449 -4.06979 -4.05383 -7.54977 0.0132932 0.0219319 -0.0262189 -3.52378 
32 0.00146982 -0.00311455 -33.2703 -4.30154 -4.28415 -7.87756 0.0126132 0.0207264 -0.0258948 -3.52255 
33 0.00138597 -0.00309102 -30.6987 -4.50779 -4.48896 -8.19377 0.0117434 0.0188887 -0.0265724 -3.52127 
34 0.00123637 -0.00300269 -28.1303 -4.68004 -4.65986 -8.48141 0.0107002 0.016666 -0.0281603 -3.52005 
35 0.00102 -0.00286556 -25.565 -4.8171 -4.79577 -8.72981 0.00950445 0.014394 -0.0305008 -3.51897 
36 0.000738017 -0.00269568 -23.0025 -4.92261 -4.90048 -8.93572 0.00819545 0.0124183 -0.0333638 -3.51805 
37 0.000395924 -0.00250817 -20.4422 -5.00203 -4.97953 -9.10122 0.00683011 0.0110039 -0.0364695 -3.51731 
38 4.00576e-06 -0.00231562 -17.8839 -5.06084 -5.03841 -9.23113 0.0054699 0.0102882 -0.0395305 -3.51671 
39 -0.000423905 -0.00212687 -15.3271 -5.10377 -5.08181 -9.33106 0.00416454 0.0102862 -0.0422939 -3.51625 
40 -0.000872455 -0.00194644 -12.7715 -5.13458 -5.11341 -9.40642 0.00293982 0.0109268 -0.0445711 -3.5159 
41 -0.00132684 -0.00177498 -10.2168 -5.15614 -5.13603 -9.46181 0.00179359 0.0120978 -0.0462508 -3.51564 
42 -0.00177436 -0.00161028 -7.66275 -5.17056 -5.15168 -9.50093 0.000701368 0.0136802 -0.047294 -3.51545 
43 -0.00220512 -0.00144867 -5.10917 -5.17925 -5.16179 -9.52653 -0.000370214 0.0155665 -0.0477158 -3.51533 
44 -0.00261193 -0.00128624 -2.55587 -5.18314 -5.16727 -9.54051 -0.00144739 0.0176609 -0.0475595 -3.51526 
45 0.0929741 2.15908 1.27284 -4.05169 -5.13195 -3.8372 -0.0552048 -0.431613 -0.00107037 -3.5291 
46 0.0664595 2.16022 3.82602 -4.04798 -5.13164 -3.82787 -0.042709 -0.430998 -0.0101037 -3.52911 
47 0.0399857 2.16103 6.37942 -4.04669 -5.12949 -3.81041 -0.0300356 -0.430402 -0.0192396 -3.52913 
48 0.0135635 2.16151 8.93319 -4.04786 -5.12514 -3.78398 -0.0173032 -0.429861 -0.0287769 -3.52915 
49 -0.0127967 2.16165 11.4875 -4.05149 -5.11804 -3.74716 -0.0046585 -0.429384 -0.0390538 -3.52918 
50 -0.0390845 2.16147 14.0425 -4.05752 -5.10727 -3.69788 0.00771643 -0.428956 -0.0504562 -3.52922 
51 -0.0652891 2.16095 16.5985 -4.06567 -5.09149 -3.63334 0.0195917 -0.428543 -0.0634117 -3.52927 
52 -0.0913992 2.1601 19.1557 -4.07528 -5.06869 -3.54998 0.030673 -0.428095 -0.0783551 -3.52933 
53 -0.117404 2.15891 21.7145 -4.0849 -5.03593 -3.4435 0.040587 -0.42755 -0.0956362 -3.52941 
54 -0.143293 2.1574 24.2751 -4.09171 -4.98895 -3.30913 0.0488805 -0.426827 -0.115318 -3.52952 
55 -0.169057 2.15559 26.8382 -4.09049 -4.92178 -3.14244 0.0550656 -0.425825 -0.136803 -3.52966 
56 -0.194688 2.15352 29.404 -4.07245 -4.82675 -2.94099 0.0587615 -0.424398 -0.15831 -3.52986 
57 -0.220171 2.15129 31.973 -4.02488 -4.69578 -2.70695 0.0599772 -0.422334 -0.176606 -3.53013 
58 -0.24548 2.14898 34.5453 -3.93449 -4.5245 -2.44934 0.0594476 -0.419323 -0.188163 -3.53048 
59 -0.270567 2.14662 37.1208 -3.79606 -4.3183 -2.18237 0.0586288 -0.414958 -0.192731 -3.53089 
60 -0.295377 2.14414 39.6989 -3.61809 -4.0918 -1.91744 0.0589873 -0.408929 -0.195434 -3.53129 
61 -0.319874 2.14144 42.2793 -3.41258 -3.8556 -1.65471 0.0611685 -0.401458 -0.202508 -3.53165 
62 -0.344092 2.13842 44.8618 -3.18612 -3.60634 -1.38245 0.0644154 -0.393132 -0.220725 -3.53194 
63 -0.368178 2.13528 47.4462 -2.90906 -3.29387 -1.09657 0.0655386 -0.385924 -0.242158 -3.53224 
64 -0.392512 2.13371 50.032 -2.42752 -2.80046 -0.486826 0.0587541 -0.408895 -0.20854 -3.53325 
65 -0.418483 2.1304 52.6263 -1.76578 -2.0054 -0.561301 0.0454746 -0.308946 -0.729987 -3.52456 
66 -0.44812 2.14653 55.1778 6.97667 7.73846 2.43086 0.0330327 -0.597314 1.77018 -3.02528 
67 0.649859 2.05055 -55.162 1.38949 0.842442 -0.678228 -0.188248 -0.0991942 1.20764 -3.26036 
68 0.633027 2.08274 -52.6122 -1.11219 -2.2188 -0.457817 -0.374526 -0.489254 -0.161454 -3.53567 
69 0.607028 2.08678 -50.0319 -2.00588 -2.56451 -0.885161 -0.163012 -0.421461 0.0767895 -3.53399 
70 0.5822 2.088 -47.4535 -2.65269 -3.07948 -1.23006 -0.123972 -0.386281 0.149192 -3.5329 
71 0.558064 2.09134 -44.8718 -3.07593 -3.44834 -1.38917 -0.101127 -0.383178 0.194404 -3.53224 
72 0.533907 2.09553 -42.2901 -3.37558 -3.73314 -1.61737 -0.0909185 -0.388477 0.207468 -3.53181 
73 0.509484 2.10001 -39.7097 -3.61947 -3.98838 -1.86673 -0.0885639 -0.395404 0.214445 -3.53138 
74 0.484728 2.10464 -37.1313 -3.82166 -4.22547 -2.12867 -0.0921722 -0.402027 0.218569 -3.53095 
75 0.459659 2.1094 -34.5553 -3.97919 -4.43935 -2.39627 -0.100142 -0.407898 0.217588 -3.53052 
76 0.434329 2.11429 -31.9825 -4.08788 -4.6203 -2.6577 -0.110257 -0.413183 0.20888 -3.53015 
77 0.408782 2.11924 -29.4128 -4.15106 -4.76318 -2.89944 -0.120062 -0.418011 0.192493 -3.52985 
78 0.383047 2.12415 -26.8464 -4.17904 -4.87017 -3.11151 -0.127677 -0.422268 0.17104 -3.52963 
79 0.357142 2.12891 -24.2829 -4.1836 -4.94768 -3.28967 -0.132142 -0.425782 0.14762 -3.52947 
80 0.331082 2.13343 -21.7219 -4.1745 -5.00291 -3.43442 -0.133253 -0.428479 0.124551 -3.52935 
81 0.304887 2.13766 -19.1629 -4.15856 -5.04211 -3.54907 -0.131245 -0.430406 0.103161 -3.52927 
82 0.278577 2.14156 -16.6057 -4.14011 -5.07002 -3.63803 -0.126558 -0.431691 0.0840174 -3.52921 
83 0.252177 2.14511 -14.0497 -4.12169 -5.09004 -3.70575 -0.119696 -0.432482 0.0671994 -3.52916 
84 0.225707 2.14831 -11.4947 -4.10464 -5.10449 -3.75617 -0.111148 -0.432906 0.0525124 -3.52913 
85 0.199188 2.15115 -8.94047 -4.08956 -5.11492 -3.79254 -0.101346 -0.433048 0.039628 -3.52911 
86 0.17264 2.15365 -6.38677 -4.0767 -5.12235 -3.81734 -0.0906368 -0.432954 0.0281737 -3.5291 
87 0.146078 2.1558 -3.83342 -4.06609 -5.12742 -3.83234 -0.0792729 -0.432654 0.0177858 -3.5291 
88 0.119518 2.15761 -1.28026 -4.05774 -5.13056 -3.83875 -0.067424 -0.432188 0.00813538 -3.5291 
89 0.215736 4.32583 -0.00418768 -3.38717 -4.73731 -3.29927 -0.0779555 -0.911472 0.0401422 -3.5337 
90 0.285738 6.49829 1.27196 -2.7726 -4.34138 -2.86159 -0.0810332 -1.33966 0.0546116 -3.53387 
91 2.20562 2.73653 -0.00293103 -3.38766 -3.53869 -3.0559 -0.421201 -0.314562 0.251643 -3.52984 
92 2.17194 2.76315 2.55018 -3.37423 -3.54991 -3.05181 -0.418953 -0.319851 0.244437 -3.52984 
93 2.29178 4.92785 1.27257 -2.72218 -3.56828 -2.73234 -0.348225 -0.787929 0.0210904 -3.53337 
94 4.28853 3.33633 1.27475 -3.40001 -2.89574 -2.73069 -0.500974 -0.200931 0.761904 -3.53337 
95 0.162935 4.32825 2.54878 -3.38274 -4.73932 -3.29459 -0.0616988 -0.911434 0.0220935 -3.5337 
96 0.110169 4.33 5.10189 -3.38258 -4.74157 -3.28393 -0.0452082 -0.911443 0.00385325 -3.5337 
97 0.206638 6.50131 3.82472 -2.7712 -4.34524 -2.85553 -0.0618831 -1.3403 0.0286219 -3.53387 
98 2.23155 4.95523 3.82563 -2.71277 -3.57909 -2.72572 -0.33655 -0.789888 0.00546324 -3.53337 
99 0.12758 6.50327 6.37768 -2.77475 -4.35079 -2.84499 -0.0426292 -1.34119 0.00202706 -3.53386 
100 4.24743 3.38805 3.82782 -3.38624 -2.91122 -2.72339 -0.505236 -0.215233 0.756026 -3.53337 
101 2.13795 2.7893 5.10343 -3.36296 -3.56254 -3.04095 -0.415054 -0.325261 0.237143 -3.52984 
102 2.10366 2.81497 7.65697 -3.35398 -3.57645 -3.02278 -0.40945 -0.331031 0.229467 -3.52983 
103 2.171 4.98177 6.37889 -2.70716 -3.59139 -2.713 -0.323255 -0.792122 -0.0107424 -3.53337 
104 4.20567 3.43918 6.38108 -3.37494 -2.92943 -2.7099 -0.507448 -0.22985 0.749895 -3.53337 
105 0.0574561 4.33105 7.65528 -3.38687 -4.74395 -3.2668 -0.028595 -0.911538 -0.0150297 -3.5337 
106 0.00481596 4.33141 10.2091 -3.39582 -4.74624 -3.24231 -0.0119846 -0.911732 -0.0350461 -3.5337 
107 0.0485928 6.50418 8.93094 -2.78351 -4.35801 -2.82941 -0.0233797 -1.34237 -0.0257552 -3.53384 
108 2.11016 5.00744 8.9325 -2.70557 -3.60508 -2.69359 -0.308318 -0.794851 -0.028015 -3.53337 
109 -0.030297 6.50403 11.4847 -2.79789 -4.36683 -2.80788 -0.00425405 -1.34386 -0.0553619 -3.53381 
110 4.16326 3.4897 8.93469 -3.36628 -2.9504 -2.68957 -0.507446 -0.24517 0.743191 -3.53336 
111 2.06907 2.84014 10.2109 -3.34743 -3.59149 -2.99634 -0.402025 -0.337404 0.221081 -3.52982 
112 2.0342 2.86481 12.7655 -3.34343 -3.60739 -2.96015 -0.392599 -0.344647 0.211608 -3.52981 
113 2.04904 5.03223 11.4866 -2.70833 -3.62004 -2.66645 -0.291664 -0.798308 -0.0469014 -3.53336 
114 4.12021 3.53957 11.4888 -3.36044 -2.97414 -2.66134 -0.504979 -0.261609 0.735542 -3.53336 
115 -0.0477319 4.33109 12.7635 -3.40976 -4.74809 -3.20904 0.00447811 -0.912014 -0.056741 -3.53369 
116 -0.100167 4.33006 15.3186 -3.42901 -4.74887 -3.16501 0.0206187 -0.912343 -0.0807151 -3.53369 
117 -0.10906 6.5028 14.039 -2.81844 -4.37706 -2.77905 0.0146093 -1.34567 -0.0874995 -3.53378 
118 1.98766 5.0561 14.0414 -2.71582 -3.636 -2.63007 -0.273169 -0.802754 -0.0680233 -3.53335 
119 -0.187666 6.50048 16.5941 -2.84571 -4.38831 -2.74098 0.0330468 -1.34775 -0.122937 -3.53373 
120 4.07652 3.58876 14.0435 -3.3576 -3.00066 -2.6237 -0.499702 -0.279633 0.726497 -3.53335 
121 1.99905 2.88894 15.3209 -3.342 -3.6237 -2.91217 -0.380933 -0.353058 0.200611 -3.52979 
122 1.96363 2.91252 17.8774 -3.343 -3.63964 -2.84973 -0.36675 -0.362967 0.18759 -3.52977 
123 1.92604 5.07903 16.597 -2.72839 -3.6525 -2.58242 -0.25268 -0.808487 -0.0920749 -3.53334 
124 4.03221 3.63724 16.5992 -3.35787 -3.02982 -2.57467 -0.491199 -0.299769 0.715504 -3.53334 
125 -0.152466 4.32833 17.8748 -3.45378 -4.74756 -3.10756 0.0362191 -0.912644 -0.107599 -3.53368 
126 -0.204607 4.3259 20.4323 -3.48389 -4.74242 -3.03326 0.0509988 -0.912802 -0.137968 -3.53367 
127 -0.266079 6.49708 19.1502 -2.88017 -4.39973 -2.69102 0.0508689 -1.35 -0.162454 -3.53368 
128 1.86419 5.10098 19.1538 -2.74629 -3.66869 -2.52086 -0.230048 -0.815844 -0.119781 -3.53332 
129 -0.344264 6.49259 21.7076 -2.92183 -4.4097 -2.62563 0.0678594 -1.35218 -0.206699 -3.53361 
130 3.98727 3.68497 19.1559 -3.36114 -3.06116 -2.51175 -0.479018 -0.322594 0.701912 -3.53333 
131 1.92795 2.93552 20.4352 -3.34585 -3.65385 -2.76955 -0.349783 -0.374718 0.172024 -3.52974 
132 1.89204 2.95793 22.9947 -3.34914 -3.66405 -2.66782 -0.329861 -0.388578 0.153476 -3.5297 
133 1.80215 5.12193 21.712 -2.76933 -3.68305 -2.44219 -0.205189 -0.825172 -0.151778 -3.53329 
134 3.94172 3.7319 21.7141 -3.36689 -3.09369 -2.43196 -0.462769 -0.348675 0.685009 -3.5333 
135 -0.256568 4.32279 22.9914 -3.51836 -4.73065 -2.93785 0.0645877 -0.912667 -0.172154 -3.53367 
136 -0.308329 4.31901 25.5525 -3.5545 -4.70779 -2.81649 0.0764988 -0.912065 -0.209877 -3.53368 
137 -0.422182 6.48704 24.2667 -2.96974 -4.41534 -2.54021 0.0837651 -1.35392 -0.255894 -3.53355 
138 1.73993 5.14186 24.272 -2.79642 -3.6931 -2.34274 -0.178202 -0.836754 -0.188362 -3.53326 
139 -0.499799 6.4805 26.8278 -3.02108 -4.41173 -2.42919 0.0982533 -1.35476 -0.309304 -3.53349 
140 3.89559 3.77801 24.274 -3.37369 -3.12537 -2.33195 -0.442287 -0.378393 0.664166 -3.53327 
141 1.8559 2.97974 25.5563 -3.34997 -3.66646 -2.54052 -0.307076 -0.404535 0.131851 -3.52966 
142 1.8196 3.001 28.1204 -3.34288 -3.65507 -2.38419 -0.282038 -0.421881 0.107882 -3.5296 
143 1.67757 5.16081 26.8341 -2.82481 -3.69479 -2.21878 -0.149581 -0.850611 -0.229007 -3.53321 
144 3.84892 3.8233 26.8361 -3.37857 -3.15253 -2.20822 -0.417903 -0.411553 0.639164 -3.53322 
145 -0.359874 4.31466 28.1161 -3.58667 -4.66707 -2.66436 0.0861255 -0.910831 -0.249646 -3.53372 
146 -0.411193 4.30988 30.6826 -3.60459 -4.59901 -2.47829 0.0928412 -0.908778 -0.288087 -3.5338 
147 -0.577085 6.47314 29.3915 -3.06976 -4.39095 -2.28658 0.110819 -1.35422 -0.364452 -3.53346 
148 1.61513 5.17888 29.3989 -2.84872 -3.68193 -2.06717 -0.120522 -0.866076 -0.271592 -3.53316 
149 -0.654021 6.46521 31.9581 -3.10457 -4.34121 -2.10777 0.120684 -1.35195 -0.416383 -3.53349 
150 3.80183 3.8678 29.4007 -3.37586 -3.16884 -2.05761 -0.3908 -0.446688 0.61081 -3.53316 
151 1.78322 3.02179 30.6874 -3.31864 -3.62105 -2.19723 -0.256195 -0.438642 0.083858 -3.52955 
152 1.74692 3.04228 33.2577 -3.26406 -3.55317 -1.98175 -0.231967 -0.451286 0.0640018 -3.52954 
153 1.55271 5.1963 31.9667 -2.85777 -3.64541 -1.88642 -0.0932136 -0.881062 -0.311533 -3.5331 
154 3.75451 3.91166 31.9683 -3.35575 -3.16419 -1.8782 -0.363298 -0.480207 0.581793 -3.5331 
155 -0.462263 4.30487 33.2524 -3.59252 -4.4923 -2.25953 0.0963111 -0.905525 -0.32 -3.53397 
156 -0.513033 4.29985 35.8256 -3.53271 -4.33805 -2.01681 0.0969972 -0.900217 -0.340853 -3.53423 
157 -0.730574 6.45712 34.5283 -3.10784 -4.24704 -1.89314 0.12691 -1.34746 -0.458049 -3.53362 
158 1.49051 5.21341 34.5377 -2.83583 -3.57313 -1.67829 -0.0706905 -0.891399 -0.341862 -3.53307 
159 -0.806669 6.44922 37.102 -3.05819 -4.09384 -1.65283 0.129092 -1.33944 -0.483814 -3.53389 
160 3.70729 3.95511 34.5392 -3.3032 -3.12458 -1.67113 -0.338636 -0.506297 0.557083 -3.53307 
161 1.7109 3.06268 35.8313 -3.1653 -3.44138 -1.74493 -0.212092 -0.456007 0.0528226 -3.5296 
162 1.6753 3.08309 38.408 -3.01685 -3.28384 -1.49753 -0.197765 -0.452501 0.0498978 -3.52976 
163 1.42876 5.23061 37.1122 -2.76399 -3.45232 -1.44967 -0.0557072 -0.891879 -0.356683 -3.53313 
164 3.66055 3.99843 37.1136 -3.20018 -3.0357 -1.44301 -0.319675 -0.51961 0.541829 -3.53312 
165 -0.563409 4.29488 38.402 -3.4163 -4.1386 -1.76527 0.0964648 -0.891704 -0.352207 -3.53458 
166 -0.613294 4.28979 40.981 -3.25082 -3.90994 -1.51719 0.0968511 -0.879501 -0.363132 -3.53493 
167 -0.882169 6.44161 39.6791 -2.94399 -3.88118 -1.40663 0.128392 -1.32614 -0.496834 -3.53426 
168 1.36771 5.24806 39.6897 -2.63172 -3.27831 -1.21239 -0.0487119 -0.881306 -0.359327 -3.5333 
169 -0.956965 6.43399 42.2584 -2.77359 -3.62908 -1.17209 0.127441 -1.3076 -0.509967 -3.53462 
170 3.61453 4.04178 39.6909 -3.03652 -2.8925 -1.20619 -0.306881 -0.521445 0.534614 -3.53329 
171 1.64016 3.10342 40.9872 -2.82715 -3.08944 -1.24723 -0.187372 -0.446118 0.0471543 -3.53 
172 1.60537 3.12353 43.5685 -2.60618 -2.86619 -0.991655 -0.17845 -0.443503 0.0361797 -3.53027 
173 1.30742 5.26564 42.2695 -2.44548 -3.06021 -0.976515 -0.0469459 -0.866267 -0.364296 -3.53355 
174 3.5692 4.08506 42.2706 -2.8197 -2.70344 -0.972403 -0.298125 -0.521702 0.524542 -3.53354 
175 -0.662667 4.28437 43.562 -3.04749 -3.66235 -1.27189 0.0992542 -0.864515 -0.382139 -3.53524 
176 -0.711699 4.27859 46.1444 -2.81811 -3.39355 -1.00921 0.102883 -0.848856 -0.414794 -3.5355 
177 -1.03112 6.42616 44.8391 -2.55394 -3.34439 -0.95569 0.127563 -1.28619 -0.528586 -3.53496 
178 1.24774 5.28317 44.8508 -2.21246 -2.80276 -0.743663 -0.0487319 -0.855325 -0.383191 -3.53387 
179 -1.10502 6.41843 47.4202 -2.29179 -3.0154 -0.768883 0.129665 -1.26642 -0.543062 -3.53529 
180 3.52434 4.12819 44.8518 -2.5551 -2.47589 -0.747511 -0.290829 -0.529356 0.502988 -3.53384 
181 1.57075 3.14339 46.1515 -2.3586 -2.61643 -0.713409 -0.170698 -0.452276 0.00854106 -3.53054 
182 1.53615 3.16342 48.7363 -2.08472 -2.35848 -0.342604 -0.182183 -0.474461 -0.0315347 -3.53016 
183 1.18821 5.30067 47.433 -1.93911 -2.50337 -0.512388 -0.0625386 -0.861184 -0.428684 -3.53412 
184 3.47967 4.17124 47.4337 -2.23684 -2.21942 -0.539573 -0.285262 -0.555033 0.458496 -3.53405 
185 -0.760872 4.27346 48.7284 -2.59795 -3.0706 -0.661564 0.0968281 -0.837779 -0.422401 -3.53518 
186 -0.811621 4.26877 51.3169 -1.98838 -2.35073 0.314442 0.0838825 -0.842585 -0.652944 -3.53805 
187 -1.17889 6.41384 50.0002 -2.05327 -2.54091 -0.328408 0.0840155 -1.27284 -0.621159 -3.53574 
188 1.12775 5.31799 50.0156 -1.56803 -2.07726 -0.0176927 -0.109419 -0.942394 -0.596005 -3.53484 
189 -1.25707 6.40546 52.5877 -1.61244 -2.48687 0.643278 0.175866 -1.31637 -0.61296 -3.53281 
190 3.43505 4.21346 50.0156 -1.75814 -1.85187 -0.0369063 -0.308705 -0.666033 0.312477 -3.5349 
191 1.50027 3.18358 51.3264 -1.43158 -1.70111 0.658999 -0.172615 -0.549164 -0.132898 -3.53272 
192 1.46587 3.20964 53.9052 0.0266931 0.953977 -0.795904 0.566297 -0.561004 0.138941 -3.37565 
193 1.06597 5.33731 52.6041 -1.24919 -1.89859 0.441457 -0.237003 -0.801295 -0.410789 -3.52779 
194 3.38747 4.26008 52.6041 -1.41013 -1.71367 0.389789 -0.390637 -0.639395 0.5874 -3.52746 
195 -0.866323 4.2769 53.8949 -0.0508248 -0.206157 -1.18039 0.0793862 -1.26166 1.02744 -3.38132 
196 1.3298 4.1174 -56.3442 5.06943 2.90555 1.6024 -1.25475 -0.273889 0.110269 -2.79034 
197 -1.33605 6.40133 55.1665 4.17997 2.79751 1.28995 0.319908 -1.52321 0.197925 -3.26107 
198 1.00488 5.36129 55.1754 5.64218 6.63189 2.7078 0.369908 -0.636446 -0.0325574 -3.15047 
199 1.98371 6.26223 -55.1334 6.93991 9.11552 2.92921 0.134179 -0.847912 -0.525681 -3.02309 
200 3.34328 4.30996 55.1754 5.53066 7.35777 2.86916 0.118687 -0.278591 0.562671 -3.15115 
201 2.87095 2.09325 -56.362 4.04254 6.0065 1.88105 -3.16454 0.252666 0.34181 -2.79939 
202 2.84551 2.1252 -53.8874 0.165051 0.763317 -3.02651 -0.982089 -0.732811 -0.162359 -3.51266 
203 3.53831 4.21674 -55.1525 6.03166 6.27392 1.75932 0.302434 -1.21949 -0.044471 -3.1433 
204 5.07312 2.13635 -55.1525 6.04997 7.03887 2.00312 0.446058 -0.528113 0.0805478 -3.14511 
205 1.29262 4.16451 -53.8815 0.861237 -0.348183 -3.67516 -0.408843 -0.573887 0.839002 -3.51412 
206 1.24176 4.17585 -51.3147 -1.28742 -1.91164 -0.379284 -0.21494 -0.881761 0.220312 -3.53905 
207 1.90264 6.26187 -52.5941 -0.91816 -1.45687 -0.573102 -0.184211 -1.16811 0.820006 -3.52792 
208 3.4607 4.22944 -52.6036 -0.749203 -0.925962 0.0952049 -0.677554 -0.496207 0.191278 -3.53019 
209 1.82403 6.27282 -50.0101 -1.64381 -2.33255 -0.271936 -0.195103 -1.27266 0.431844 -3.53675 
210 5.01221 2.17771 -52.6036 -1.3421 -0.348707 0.0543881 -0.502609 0.0190804 0.991445 -3.52953 
211 2.80522 2.14769 -51.32 -1.10392 -0.947303 -0.117116 -0.278341 -0.334392 0.262356 -3.53415 
212 2.77267 2.17448 -48.7406 -1.97936 -1.8419 -0.559195 -0.29192 -0.204886 0.340971 -3.53087 
213 3.40036 4.25787 -50.02 -1.43579 -1.65778 -0.149223 -0.409981 -0.699616 0.288796 -3.53496 
214 4.971 2.23184 -50.02 -1.84872 -1.27627 -0.121354 -0.296912 0.0297535 0.837136 -3.535 
215 1.19011 4.18031 -48.7356 -2.18965 -2.7639 -0.802859 -0.180741 -0.832734 0.279331 -3.53641 
216 1.14097 4.18615 -46.1544 -2.65149 -3.19564 -0.993192 -0.162582 -0.820541 0.398876 -3.53606 
217 1.74947 6.27852 -47.4308 -2.11222 -2.83606 -0.691746 -0.213517 -1.23032 0.544313 -3.5359 
218 3.34583 4.28735 -47.4413 -1.90637 -2.20947 -0.578514 -0.300958 -0.624328 0.339802 -3.53415 
219 1.67613 6.29017 -44.8499 -2.48396 -3.19274 -0.879685 -0.199988 -1.23471 0.603309 -3.53536 
220 4.93557 2.28429 -47.4405 -2.33045 -1.78887 -0.553154 -0.211119 0.120273 0.866349 -3.5342 
221 2.74314 2.20158 -46.1597 -2.37892 -2.26955 -0.753709 -0.229945 -0.146534 0.39467 -3.53075 
222 2.71529 2.23009 -43.5781 -2.69387 -2.59061 -0.96494 -0.212854 -0.137026 0.41484 -3.53038 
223 3.29294 4.31943 -44.8609 -2.24729 -2.57278 -0.732844 -0.260107 -0.612545 0.374765 -3.53393 
224 4.90326 2.33725 -44.8598 -2.67154 -2.14231 -0.73402 -0.176063 0.155652 0.897475 -3.53393 
225 1.09235 4.19453 -43.5727 -2.99187 -3.51466 -1.2212 -0.148765 -0.829719 0.425175 -3.53554 
226 1.04348 4.20367 -40.9919 -3.25294 -3.7892 -1.46191 -0.145669 -0.844047 0.432451 -3.5351 
227 1.60283 6.30357 -42.2691 -2.768 -3.49816 -1.10665 -0.199028 -1.25338 0.61945 -3.53485 
228 3.2408 4.35303 -42.2801 -2.52279 -2.868 -0.932787 -0.242716 -0.616436 0.392226 -3.53361 
229 1.52893 6.31769 -39.6895 -2.97981 -3.76473 -1.35014 -0.205749 -1.2737 0.623504 -3.5344 
230 4.87231 2.39115 -42.279 -2.95723 -2.42315 -0.940024 -0.164912 0.165755 0.922507 -3.5336 
231 2.68783 2.2594 -40.9971 -2.95083 -2.85133 -1.19457 -0.209542 -0.136555 0.428883 -3.53007 
232 2.66031 2.28935 -38.4177 -3.16449 -3.0661 -1.43596 -0.214029 -0.137273 0.440434 -3.52982 
233 3.18875 4.38772 -39.7004 -2.7411 -3.10731 -1.15638 -0.237064 -0.622916 0.402453 -3.53334 
234 4.84181 2.44606 -39.6992 -3.19496 -2.64018 -1.16393 -0.165383 0.169125 0.944252 -3.53333 
235 0.994076 4.21314 -38.4126 -3.45319 -4.03308 -1.71219 -0.15017 -0.857914 0.434044 -3.53468 
236 0.944108 4.22287 -35.8358 -3.59432 -4.24293 -1.96682 -0.159466 -0.869468 0.429048 -3.5343 
237 1.45425 6.33236 -37.1121 -3.12242 -3.98788 -1.60165 -0.216503 -1.29092 0.618718 -3.53399 
238 3.13654 4.42339 -37.1226 -2.90292 -3.29063 -1.38986 -0.240416 -0.630879 0.404492 -3.53315 
239 1.37886 6.34758 -34.5378 -3.19669 -4.15647 -1.84756 -0.227114 -1.30445 0.600171 -3.53368 
240 4.81147 2.50199 -37.1214 -3.38249 -2.79626 -1.39645 -0.175755 0.167526 0.958283 -3.53314 
241 2.63268 2.31991 -35.8406 -3.33422 -3.235 -1.68155 -0.225745 -0.140619 0.446197 -3.52964 
242 2.60492 2.35098 -33.2664 -3.45573 -3.35568 -1.92117 -0.244514 -0.149875 0.442321 -3.52955 
243 3.0841 4.45993 -34.5477 -3.00619 -3.41648 -1.61971 -0.252158 -0.643512 0.393096 -3.53306 
244 4.78125 2.55881 -34.5464 -3.51486 -2.89324 -1.62571 -0.196163 0.155979 0.959506 -3.53305 
245 0.89366 4.23287 -33.2621 -3.67579 -4.40977 -2.21449 -0.170287 -0.878823 0.413453 -3.534 
246 0.842823 4.24303 -30.6917 -3.70509 -4.53087 -2.44173 -0.179688 -0.886643 0.386228 -3.5338 
247 1.30289 6.36321 -31.9671 -3.21259 -4.26849 -2.07169 -0.234579 -1.31518 0.565565 -3.5335 
248 3.03136 4.49704 -31.9761 -3.05575 -3.49197 -1.83337 -0.270639 -0.661678 0.367117 -3.53306 
249 1.22641 6.37891 -29.3999 -3.18804 -4.33365 -2.26304 -0.23785 -1.32355 0.518462 -3.53343 
250 4.75098 2.61623 -31.9746 -3.59474 -2.94036 -1.83956 -0.225042 0.132077 0.947756 -3.53305 
251 2.57698 2.38238 -30.6955 -3.5306 -3.43223 -2.14368 -0.268602 -0.165612 0.428602 -3.52954 
252 2.54872 2.41388 -28.1277 -3.56744 -3.47508 -2.34071 -0.295082 -0.185397 0.408391 -3.52957 
253 2.97815 4.5343 -29.4077 -3.0641 -3.53105 -2.0226 -0.292864 -0.682863 0.331064 -3.53311 
254 4.7204 2.67392 -29.4061 -3.6327 -2.95281 -2.02945 -0.258991 0.0986283 0.927454 -3.53309 
255 0.791657 4.25314 -28.1246 -3.69693 -4.61216 -2.63897 -0.185861 -0.893219 0.350532 -3.53368 
256 0.740195 4.26298 -25.5606 -3.66662 -4.6634 -2.80268 -0.188143 -0.89851 0.310986 -3.53362 
257 1.14948 6.39427 -26.8358 -3.14074 -4.36569 -2.41836 -0.237036 -1.32954 0.464979 -3.53343 
258 2.92434 4.57132 -26.8425 -3.04551 -3.54742 -2.18407 -0.315527 -0.703968 0.290953 -3.53317 
259 1.07213 6.40896 -24.2745 -3.0841 -4.37697 -2.54005 -0.232534 -1.33338 0.41054 -3.53348 
260 4.68923 2.73157 -26.8408 -3.64123 -2.94515 -2.19141 -0.294329 0.0605718 0.903577 -3.53315 
261 2.52003 2.44524 -25.563 -3.57725 -3.49585 -2.5083 -0.321154 -0.206208 0.385682 -3.52962 
262 2.49082 2.47632 -23.001 -3.56989 -3.50398 -2.64632 -0.344881 -0.225877 0.363356 -3.52967 
263 2.86985 4.60781 -24.28 -3.01192 -3.55128 -2.31791 -0.336004 -0.722885 0.251333 -3.53322 
264 4.65726 2.78898 -24.2781 -3.63109 -2.92825 -2.32517 -0.328318 0.0222263 0.87969 -3.5332 
265 0.688462 4.27234 -22.9993 -3.62605 -4.69408 -2.93413 -0.186592 -0.902517 0.271423 -3.53361 
266 0.63649 4.2811 -20.4401 -3.58304 -4.71166 -3.03714 -0.18162 -0.905407 0.234199 -3.53361 
267 0.994426 6.42276 -21.7153 -3.02682 -4.37664 -2.63314 -0.224794 -1.3356 0.358662 -3.53354 
268 2.81465 4.6436 -21.7198 -2.97185 -3.54931 -2.42627 -0.352756 -0.738684 0.214719 -3.53327 
269 0.916399 6.43554 -19.158 -2.97374 -4.37073 -2.70322 -0.214298 -1.33679 0.311053 -3.53361 
270 4.62437 2.84602 -21.7178 -3.61031 -2.90912 -2.43287 -0.359407 -0.0136734 0.85779 -3.53324 
271 2.46106 2.50704 -20.4412 -3.55272 -3.506 -2.75711 -0.365259 -0.243298 0.342958 -3.52971 
272 2.43075 2.53732 -17.8832 -3.53073 -3.50589 -2.8442 -0.381997 -0.258153 0.325067 -3.52974 
273 2.75875 4.67857 -19.1614 -2.93069 -3.5455 -2.51226 -0.365207 -0.751276 0.182081 -3.5333 
274 4.59052 2.9026 -19.1594 -3.58429 -2.89175 -2.51782 -0.386963 -0.0458592 0.838722 -3.53327 
275 0.584308 4.28919 -17.8826 -3.54211 -4.7214 -3.1164 -0.173775 -0.907447 0.200387 -3.53362 
276 0.53195 4.29657 -15.3265 -3.50546 -4.72671 -3.17641 -0.16363 -0.908893 0.170193 -3.53363 
277 0.838102 6.44723 -16.602 -2.92702 -4.36289 -2.75535 -0.201555 -1.33745 0.268171 -3.53368 
278 2.70219 4.7127 -16.6046 -2.89148 -3.54205 -2.57928 -0.373424 -0.761018 0.153465 -3.53332 
279 0.759577 6.4578 -14.0471 -2.88726 -4.35515 -2.79367 -0.187052 -1.33787 0.22974 -3.53373 
280 4.55571 2.95868 -16.6025 -3.55644 -2.87811 -2.58366 -0.410916 -0.0740698 0.822616 -3.5333 
281 2.39991 2.56716 -15.3267 -3.50703 -3.50587 -2.91137 -0.395236 -0.270578 0.309694 -3.52977 
282 2.36858 2.59653 -12.7712 -3.48342 -3.50704 -2.96218 -0.405329 -0.280917 0.296574 -3.52979 
283 2.64503 4.74597 -14.049 -2.85571 -3.54004 -2.63059 -0.377807 -0.768426 0.128456 -3.53333 
284 4.51997 3.01424 -14.0469 -3.52877 -2.86888 -2.63379 -0.43149 -0.0986102 0.809225 -3.53332 
285 0.479447 4.30323 -12.7714 -3.47387 -4.72965 -3.22108 -0.151717 -0.909933 0.143338 -3.53365 
286 0.426828 4.30916 -10.2172 -3.44739 -4.73146 -3.25352 -0.138485 -0.910668 0.119309 -3.53366 
287 0.680863 6.46726 -11.4929 -2.85419 -4.34853 -2.82135 -0.171213 -1.33818 0.195139 -3.53377 
288 2.5873 4.77838 -11.4942 -2.82389 -3.53992 -2.66901 -0.378864 -0.774013 0.106454 -3.53335 
289 0.601998 6.47562 -8.9394 -2.82728 -4.34352 -2.84075 -0.154372 -1.33845 0.163625 -3.53381 
290 4.48336 3.06928 -11.4921 -3.50234 -2.8641 -2.67115 -0.449023 -0.120039 0.798126 -3.53333 
291 2.33679 2.62545 -10.2167 -3.46087 -3.50987 -2.99964 -0.412691 -0.289577 0.28533 -3.52981 
292 2.30457 2.6539 -7.66275 -3.43985 -3.51449 -3.02618 -0.417705 -0.296946 0.275567 -3.52982 
293 2.52906 4.80995 -8.94021 -2.79609 -3.54182 -2.6969 -0.377081 -0.778226 0.0868304 -3.53336 
294 4.44591 3.12378 -8.93807 -3.47768 -2.86349 -2.6981 -0.463858 -0.138982 0.788856 -3.53334 
295 0.37412 4.31438 -7.66347 -3.42575 -4.73282 -3.27611 -0.124283 -0.911148 0.0975202 -3.53367 
296 0.321352 4.31889 -5.11018 -3.40863 -4.73413 -3.29055 -0.109358 -0.911406 0.0774015 -3.53368 
297 0.523018 6.48289 -6.38627 -2.806 -4.34029 -2.85352 -0.136773 -1.33868 0.134463 -3.53384 
298 2.47035 4.84067 -6.38667 -2.77214 -3.54571 -2.71607 -0.372859 -0.781433 0.0689937 -3.53336 
299 0.443959 6.48908 -3.83342 -2.78993 -4.33886 -2.86082 -0.118593 -1.33891 0.106975 -3.53386 
300 4.40767 3.17774 -6.38451 -3.45503 -2.86668 -2.71644 -0.476289 -0.156037 0.780972 -3.53335 
301 2.27195 2.6819 -5.10926 -3.42057 -3.52088 -3.04364 -0.42067 -0.30337 0.266916 -3.52983 
302 2.23896 2.70945 -2.55603 -3.40315 -3.52898 -3.05328 -0.421793 -0.309152 0.259042 -3.52984 
303 2.41121 4.87056 -3.83345 -2.75189 -3.55149 -2.72783 -0.366505 -0.783942 0.0524089 -3.53337 
304 4.36867 3.23116 -3.83128 -3.43449 -2.8733 -2.72749 -0.486535 -0.17174 0.774077 -3.53336 
305 0.268549 4.32271 -2.55713 -3.3958 -4.73559 -3.29803 -0.0938757 -0.911489 0.0584321 -3.53369 
306 0.364855 6.49421 -1.28071 -2.77884 -4.33924 -2.86338 -0.0999732 -1.33921 0.0805475 -3.53387 
307 2.35168 4.89962 -1.28042 -2.73524 -3.55905 -2.73309 -0.358242 -0.786025 0.0365918 -3.53337 
308 4.32895 3.28402 -1.27824 -3.41613 -2.88306 -2.73208 -0.49474 -0.186564 0.767824 -3.53336 
309 2.43666 7.0918 -0.00402388 -2.21148 -3.35877 -2.40309 -0.319265 -1.1913 -0.176747 -3.53293 
310 0.434931 8.66918 -0.0043961 -2.2471 -4.0144 -2.49602 -0.101444 -1.72729 0.0902941 -3.53362 