ITEM: TIMESTEP
212
ITEM: NUMBER OF ATOMS
37664
ITEM: BOX BOUNDS ff ff ff
-100 100
-100 100
-156.15 156.15
ITEM: ATOMS id x y z v_peratom_sxx v_peratom_syy v_peratom_szz v_peratom_sxy v_peratom_sxz v_peratom_syz c_atomPE 
1 2.24883e-06 2.92338e-07 0.000590665 -5.17122 -5.17123 -9.54451 1.75944e-07 5.29453e-06 3.20649e-05 -3.51522 
2 2.3762e-06 1.88219e-07 2.55364 -5.16868 -5.16869 -9.5397 8.91091e-07 3.6506e-06 3.16186e-05 -3.51524 
3 2.49076e-06 8.10673e-08 5.10682 -5.16218 -5.16219 -9.52483 1.58603e-06 1.97473e-06 3.08511e-05 -3.51531 
4 2.59206e-06 -3.01051e-08 7.66027 -5.15134 -5.15134 -9.49911 2.25598e-06 3.13058e-07 2.97631e-05 -3.51543 
5 2.68016e-06 -1.46091e-07 10.2142 -5.13543 -5.13543 -9.46105 2.8934e-06 -1.28302e-06 2.83611e-05 -3.51561 
6 2.75567e-06 -2.67333e-07 12.7686 -5.11332 -5.11332 -9.4084 3.48777e-06 -2.75582e-06 2.66613e-05 -3.51585 
7 2.81966e-06 -3.93717e-07 15.324 -5.08336 -5.08336 -9.33804 4.0251e-06 -4.03921e-06 2.46896e-05 -3.51618 
8 2.87385e-06 -5.24385e-07 17.8804 -5.04323 -5.04323 -9.24584 4.48409e-06 -5.05778e-06 2.24889e-05 -3.5166 
9 2.92042e-06 -6.5718e-07 20.4382 -4.98975 -4.98975 -9.1267 4.83624e-06 -5.72385e-06 2.01227e-05 -3.51714 
10 2.96205e-06 -7.88142e-07 22.9977 -4.91864 -4.91863 -8.97465 5.03989e-06 -5.94441e-06 1.76939e-05 -3.51783 
11 3.00103e-06 -9.10187e-07 25.5595 -4.8244 -4.8244 -8.78364 5.04447e-06 -5.64015e-06 1.53703e-05 -3.51868 
12 3.03762e-06 -1.01176e-06 28.1239 -4.7006 -4.7006 -8.54921 4.79325e-06 -4.80514e-06 1.3427e-05 -3.5197 
13 3.0661e-06 -1.07502e-06 30.6913 -4.54134 -4.54133 -8.27167 4.24377e-06 -3.62106e-06 1.228e-05 -3.5209 
14 3.06902e-06 -1.07609e-06 33.2619 -4.34503 -4.34503 -7.95979 3.38675e-06 -2.62724e-06 1.24514e-05 -3.5222 
15 3.01108e-06 -9.89805e-07 35.8358 -4.11963 -4.11962 -7.63117 2.2685e-06 -2.84941e-06 1.43503e-05 -3.52347 
16 2.84019e-06 -8.03489e-07 38.4125 -3.8813 -3.8813 -7.30438 1.01533e-06 -5.64038e-06 1.77621e-05 -3.52458 
17 2.51095e-06 -5.40989e-07 40.9917 -3.64178 -3.64178 -6.98606 -2.08721e-08 -1.16145e-05 2.09805e-05 -3.52548 
18 2.04451e-06 -2.67662e-07 43.5731 -3.40214 -3.40213 -6.66355 1.64022e-07 -1.82229e-05 2.10555e-05 -3.5262 
19 1.48741e-06 1.59397e-09 46.1569 -3.13713 -3.13712 -6.30018 3.30328e-06 -2.34985e-05 1.88287e-05 -3.52695 
20 6.63133e-07 3.32006e-07 48.7435 -2.75276 -2.75275 -5.86056 4.53457e-06 -3.89269e-05 1.91052e-05 -3.52782 
21 5.95933e-07 -4.11185e-08 51.3317 -1.92341 -1.92342 -4.9202 1.12923e-05 1.0567e-05 -1.83623e-05 -3.53203 
22 4.01304e-07 -1.42881e-06 53.9138 -0.851596 -0.851602 -8.91764 3.73648e-06 -5.81644e-06 -7.15309e-05 -3.48169 
23 8.71386e-07 -1.98378e-06 56.3885 1.68569 1.68569 1.87725 -9.53184e-07 8.7754e-06 -2.64594e-06 -2.55581 
24 -1.23087e-07 -1.12453e-06 -53.8876 -2.60758 -2.60756 -6.54996 -1.94426e-05 1.97587e-05 -2.88502e-05 -3.40182 
25 1.02659e-07 -1.55837e-06 -51.3239 -2.07854 -2.07855 -5.57792 -4.99428e-06 2.67647e-05 -8.91611e-06 -3.52873 
26 8.1481e-07 -5.87881e-07 -48.7462 -2.69149 -2.6915 -6.14341 -6.15412e-06 4.34418e-06 2.64955e-05 -3.52641 
27 9.15772e-07 1.86503e-07 -46.1645 -3.01689 -3.01689 -6.34119 -4.89396e-06 -2.10545e-06 2.2286e-05 -3.52681 
28 8.35754e-07 6.97385e-07 -43.5819 -3.2971 -3.2971 -6.59982 -5.98754e-06 -1.20112e-06 1.75021e-05 -3.52638 
29 7.0825e-07 9.7949e-07 -41.0003 -3.551 -3.551 -6.88692 -6.38103e-06 3.36519e-06 1.67484e-05 -3.52579 
30 6.31741e-07 1.13786e-06 -38.4204 -3.79984 -3.79984 -7.19496 -6.842e-06 6.9073e-06 1.79624e-05 -3.52496 
31 6.11566e-07 1.24014e-06 -35.8427 -4.04514 -4.04514 -7.52007 -7.28985e-06 8.77927e-06 1.90938e-05 -3.52389 
32 6.26393e-07 1.30454e-06 -33.2677 -4.2777 -4.2777 -7.85121 -7.55128e-06 9.87347e-06 1.97561e-05 -3.52265 
33 6.64909e-07 1.33047e-06 -30.6959 -4.48458 -4.48458 -8.17075 -7.57e-06 1.07376e-05 2.03e-05 -3.52136 
34 7.24823e-07 1.31767e-06 -28.1273 -4.65722 -4.65722 -8.46142 -7.36642e-06 1.14971e-05 2.10746e-05 -3.52012 
35 8.06253e-07 1.27118e-06 -25.5618 -4.79452 -4.79452 -8.71243 -6.98096e-06 1.21229e-05 2.22025e-05 -3.51903 
36 9.08819e-07 1.19918e-06 -22.9991 -4.90029 -4.90029 -8.92059 -6.45423e-06 1.25578e-05 2.36257e-05 -3.5181 
37 1.03083e-06 1.11022e-06 -20.4388 -4.98016 -4.98016 -9.08809 -5.82224e-06 1.27501e-05 2.52109e-05 -3.51735 
38 1.16931e-06 1.01148e-06 -17.8804 -5.03967 -5.03968 -9.21986 -5.11854e-06 1.26676e-05 2.6816e-05 -3.51674 
39 1.32034e-06 9.08256e-07 -15.3236 -5.08356 -5.08356 -9.3216 -4.37161e-06 1.22988e-05 2.83218e-05 -3.51627 
40 1.47938e-06 8.03859e-07 -12.768 -5.11553 -5.11554 -9.39871 -3.60332e-06 1.16527e-05 2.96409e-05 -3.51591 
41 1.64188e-06 7.00114e-07 -10.2133 -5.1384 -5.13841 -9.45582 -2.82998e-06 1.07528e-05 3.07151e-05 -3.51564 
42 1.80348e-06 5.97541e-07 -7.65924 -5.15421 -5.15422 -9.49659 -2.06075e-06 9.63086e-06 3.15096e-05 -3.51545 
43 1.96045e-06 4.95941e-07 -5.1057 -5.16438 -5.16439 -9.5238 -1.30194e-06 8.32273e-06 3.20055e-05 -3.51532 
44 2.10969e-06 3.94539e-07 -2.55248 -5.16986 -5.16987 -9.53937 -5.55519e-07 6.86482e-06 3.21924e-05 -3.51524 
45 0.0963784 2.16003 1.27709 -4.03158 -5.13701 -3.84008 -0.049353 -0.444162 0.0177948 -3.5291 
46 0.0702453 2.16103 3.83014 -4.03119 -5.13561 -3.83232 -0.0357481 -0.444454 0.00808164 -3.52911 
47 0.0441132 2.16168 6.38338 -4.03323 -5.13229 -3.81642 -0.0221194 -0.444682 -0.00195574 -3.52912 
48 0.0179905 2.16199 8.93696 -4.03771 -5.12674 -3.79148 -0.00860047 -0.444847 -0.0126006 -3.52914 
49 -0.00811422 2.16196 11.4911 -4.04465 -5.1184 -3.75606 0.00465751 -0.444947 -0.0241637 -3.52916 
50 -0.0341923 2.16159 14.0458 -4.05398 -5.10642 -3.70806 0.0174716 -0.44497 -0.0369888 -3.5292 
51 -0.060235 2.16086 16.6016 -4.06544 -5.08948 -3.64467 0.0296111 -0.444899 -0.0514465 -3.52924 
52 -0.0862341 2.1598 19.1585 -4.07836 -5.06565 -3.56228 0.04078 -0.444703 -0.0679006 -3.52931 
53 -0.112182 2.1584 21.7169 -4.09128 -5.03202 -3.45653 0.050603 -0.444348 -0.0866187 -3.52939 
54 -0.138074 2.15668 24.2773 -4.10132 -4.98438 -3.32261 0.0586281 -0.443786 -0.107576 -3.52949 
55 -0.163907 2.15467 26.8401 -4.10319 -4.91678 -3.15601 0.0643732 -0.442957 -0.13009 -3.52963 
56 -0.189678 2.15244 29.4056 -4.08793 -4.82151 -2.95423 0.0674713 -0.441766 -0.152305 -3.52983 
57 -0.215382 2.15007 31.9743 -4.04266 -4.69042 -2.71943 0.0679545 -0.440045 -0.170928 -3.53009 
58 -0.241001 2.14768 34.5464 -3.95382 -4.51907 -2.46069 0.0665908 -0.437519 -0.182391 -3.53044 
59 -0.266496 2.14529 37.1216 -3.81602 -4.31287 -2.19239 0.0648749 -0.433797 -0.186431 -3.53085 
60 -0.291822 2.14286 39.6996 -3.63761 -4.08653 -1.92614 0.0643016 -0.428576 -0.188172 -3.53126 
61 -0.316956 2.14028 42.2799 -3.4305 -3.8509 -1.66235 0.0655075 -0.422097 -0.193809 -3.53163 
62 -0.341949 2.13749 44.8622 -3.201 -3.60291 -1.38984 0.0676542 -0.415191 -0.209995 -3.53192 
63 -0.367006 2.13472 47.4465 -2.91897 -3.29253 -1.10662 0.0673769 -0.411215 -0.228448 -3.53223 
64 -0.392512 2.13371 50.032 -2.4386 -2.79792 -0.497166 0.0656002 -0.422085 -0.198556 -3.53322 
65 -0.418483 2.1304 52.6263 -1.76557 -2.00572 -0.561498 0.0455707 -0.308991 -0.729803 -3.52457 
66 -0.44812 2.14653 55.1778 6.97639 7.73836 2.43104 0.0329653 -0.597341 1.77032 -3.02528 
67 0.649859 2.05055 -55.162 1.3893 0.842207 -0.678873 -0.188268 -0.0992011 1.20753 -3.26036 
68 0.633027 2.08274 -52.6122 -1.11184 -2.21858 -0.457739 -0.374486 -0.48928 -0.161463 -3.53566 
69 0.607028 2.08678 -50.0319 -1.99734 -2.55554 -0.863713 -0.172411 -0.42753 0.0910003 -3.534 
70 0.581491 2.08898 -47.453 -2.63407 -3.07374 -1.19947 -0.131235 -0.400161 0.170622 -3.53289 
71 0.556829 2.09304 -44.8708 -3.05301 -3.44466 -1.36132 -0.113039 -0.395221 0.211569 -3.53224 
72 0.532309 2.09774 -42.2887 -3.34933 -3.73156 -1.59013 -0.105351 -0.399819 0.22139 -3.53182 
73 0.507644 2.10256 -39.7079 -3.5902 -3.98875 -1.84034 -0.104251 -0.406163 0.225974 -3.5314 
74 0.482752 2.10739 -37.129 -3.78951 -4.22785 -2.10365 -0.108302 -0.412081 0.22848 -3.53098 
75 0.457646 2.11225 -34.5527 -3.94424 -4.44377 -2.37309 -0.116071 -0.417118 0.226594 -3.53056 
76 0.432372 2.11714 -31.9795 -4.05034 -4.62666 -2.63663 -0.125402 -0.421505 0.217646 -3.53019 
77 0.406973 2.12202 -29.4095 -4.11138 -4.77123 -2.88057 -0.133892 -0.425488 0.201642 -3.52989 
78 0.381474 2.12681 -26.8428 -4.1379 -4.87956 -3.09485 -0.139762 -0.429089 0.18113 -3.52967 
79 0.355884 2.13141 -24.279 -4.14185 -4.958 -3.27516 -0.142214 -0.432235 0.159081 -3.52951 
80 0.330208 2.13576 -21.7178 -4.13299 -5.01375 -3.42199 -0.141225 -0.43488 0.137632 -3.52938 
81 0.304451 2.1398 -19.1587 -4.11804 -5.05306 -3.53864 -0.137187 -0.437039 0.117914 -3.5293 
82 0.278619 2.14353 -16.6013 -4.10116 -5.08075 -3.62951 -0.130634 -0.438767 0.100314 -3.52923 
83 0.252719 2.14691 -14.0453 -4.0847 -5.10028 -3.69904 -0.122093 -0.440138 0.0847844 -3.52918 
84 0.22676 2.14996 -11.4902 -4.0699 -5.11407 -3.75118 -0.112019 -0.441226 0.0710626 -3.52915 
85 0.20075 2.15266 -8.93598 -4.05734 -5.12371 -3.78917 -0.100787 -0.442091 0.0588074 -3.52912 
86 0.174699 2.15501 -6.38229 -4.04721 -5.13028 -3.81553 -0.0886932 -0.442785 0.0476684 -3.52911 
87 0.148613 2.15703 -3.82899 -4.03956 -5.13446 -3.83208 -0.0759705 -0.443344 0.0373165 -3.5291 
88 0.122504 2.1587 -1.27591 -4.03436 -5.13663 -3.84005 -0.0628056 -0.443797 0.0274512 -3.5291 
89 0.219284 4.32675 0.000577323 -3.36859 -4.74121 -3.3017 -0.0697408 -0.922054 0.0468003 -3.53368 
90 0.289954 6.49913 1.27684 -2.7607 -4.34165 -2.86434 -0.0707626 -1.34901 0.055311 -3.53384 
91 2.20916 2.73771 0.000580141 -3.36833 -3.54742 -3.05193 -0.414562 -0.319627 0.257915 -3.52985 
92 2.17586 2.76421 2.55358 -3.3578 -3.55708 -3.04852 -0.411779 -0.325734 0.250081 -3.52985 
93 2.29588 4.92895 1.2764 -2.70896 -3.57397 -2.72698 -0.340411 -0.79488 0.0215979 -3.53338 
94 4.29255 3.33763 1.27761 -3.38268 -2.90043 -2.72631 -0.494353 -0.204172 0.765921 -3.53338 
95 0.166919 4.32908 2.55342 -3.36737 -4.74175 -3.29848 -0.0528726 -0.922735 0.0283901 -3.53368 
96 0.114546 4.33071 5.10639 -3.37032 -4.7425 -3.28923 -0.0359238 -0.923391 0.00967377 -3.53368 
97 0.211278 6.50209 3.82947 -2.76187 -4.34385 -2.85951 -0.0516847 -1.35016 0.0290223 -3.53384 
98 2.23604 4.95627 3.82934 -2.70206 -3.58309 -2.72153 -0.328746 -0.797453 0.00530284 -3.53338 
99 0.132602 6.50399 6.38226 -2.76786 -4.34779 -2.85014 -0.032621 -1.35149 0.0020762 -3.53383 
100 4.2518 3.38926 3.83056 -3.37141 -2.91433 -2.71966 -0.498421 -0.219133 0.759554 -3.53338 
101 2.14222 2.79024 5.10669 -3.34946 -3.56809 -3.03835 -0.407486 -0.331954 0.242036 -3.52985 
102 2.10822 2.81578 7.66007 -3.34342 -3.58037 -3.02087 -0.401624 -0.338501 0.233498 -3.52985 
103 2.17584 4.98272 6.38246 -2.6989 -3.59371 -2.71 -0.315568 -0.800251 -0.0116394 -3.53338 
104 4.21035 3.44027 6.38369 -3.36264 -2.931 -2.70683 -0.500545 -0.234406 0.752856 -3.53338 
105 0.0621826 4.33165 7.65959 -3.3776 -4.74337 -3.27347 -0.019008 -0.924041 -0.00979094 -3.53368 
106 0.00984609 4.33189 10.2132 -3.38948 -4.74418 -3.25026 -0.00224692 -0.924694 -0.0304806 -3.53367 
107 0.0539498 6.50482 8.93532 -2.77894 -4.35346 -2.83571 -0.0136741 -1.35305 -0.0261028 -3.53381 
108 2.1153 5.00829 8.9359 -2.69972 -3.60576 -2.69175 -0.300845 -0.803484 -0.0297047 -3.53337 
109 -0.0246539 6.50458 11.4888 -2.79557 -4.36081 -2.81529 0.00503962 -1.35486 -0.0561439 -3.53379 
110 4.1682 3.49066 8.93714 -3.35655 -2.95044 -2.68715 -0.500552 -0.250368 0.745514 -3.53338 
111 2.07389 2.84081 10.2139 -3.33982 -3.59376 -2.9951 -0.394069 -0.345606 0.224157 -3.52984 
112 2.03923 2.86531 12.7682 -3.33878 -3.60802 -2.95955 -0.384635 -0.35353 0.213655 -3.52983 
113 2.05444 5.03296 11.4898 -2.70486 -3.61912 -2.66574 -0.284493 -0.807388 -0.0494294 -3.53337 
114 4.12536 3.54039 11.4911 -3.35333 -2.9727 -2.65953 -0.498183 -0.267432 0.737162 -3.53337 
115 -0.0424459 4.33142 12.7673 -3.40629 -4.7446 -3.2182 0.0142186 -0.925348 -0.0529206 -3.53367 
116 -0.0946751 4.33023 15.3222 -3.42841 -4.74407 -3.17528 0.0302173 -0.925979 -0.0776854 -3.53366 
117 -0.103183 6.50324 14.0429 -2.81833 -4.36973 -2.78751 0.0233831 -1.35695 -0.0887426 -3.53375 
118 1.99327 5.05671 14.0444 -2.71473 -3.63357 -2.63045 -0.266388 -0.812235 -0.0714236 -3.53336 
119 -0.181609 6.50081 16.5977 -2.84783 -4.37984 -2.75043 0.0411946 -1.35931 -0.124653 -3.53371 
120 4.08184 3.58942 14.0456 -3.35318 -2.9978 -2.62247 -0.493093 -0.286066 0.727359 -3.53336 
121 2.00424 2.88927 15.3234 -3.34036 -3.62274 -2.91215 -0.373084 -0.362572 0.201577 -3.52981 
122 1.96893 2.91266 17.8796 -3.34441 -3.63717 -2.85021 -0.35914 -0.37307 0.18746 -3.52979 
123 1.9318 5.07949 16.5998 -2.72973 -3.64865 -2.58382 -0.24638 -0.818342 -0.0963646 -3.53334 
124 4.03764 3.63773 16.6011 -3.35621 -3.02563 -2.57394 -0.484865 -0.306801 0.715573 -3.53335 
125 -0.146823 4.32834 17.8781 -3.45606 -4.74161 -3.11882 0.045533 -0.926534 -0.105372 -3.53365 
126 -0.19887 4.32573 20.4353 -3.4891 -4.73554 -3.04533 0.0598865 -0.926921 -0.136515 -3.53365 
127 -0.259903 6.49727 19.1535 -2.88454 -4.39036 -2.70137 0.0582871 -1.36183 -0.164634 -3.53365 
128 1.87005 5.10128 19.1563 -2.75011 -3.66358 -2.5232 -0.224319 -0.826063 -0.124953 -3.53332 
129 -0.338033 6.49262 21.7106 -2.92852 -4.39976 -2.63673 0.0744491 -1.3643 -0.209311 -3.53359 
130 3.99276 3.68527 19.1576 -3.36234 -3.05578 -2.51145 -0.473051 -0.330221 0.701177 -3.53334 
131 1.93331 2.93546 20.4372 -3.35035 -3.65002 -2.77043 -0.342537 -0.385375 0.170825 -3.52976 
132 1.89739 2.95766 22.9964 -3.35675 -3.65905 -2.66895 -0.323103 -0.399762 0.151292 -3.52972 
133 1.80803 5.12206 21.7142 -2.77569 -3.67691 -2.44534 -0.200118 -0.835767 -0.157796 -3.5333 
134 3.94721 3.73201 21.7155 -3.37101 -3.08729 -2.43198 -0.457258 -0.3569 0.683498 -3.53331 
135 -0.250799 4.32243 22.994 -3.52652 -4.72312 -2.95051 0.0729106 -0.927014 -0.171402 -3.53364 
136 -0.302598 4.31848 25.5548 -3.56562 -4.69993 -2.82944 0.0841243 -0.926675 -0.209702 -3.53365 
137 -0.415969 6.48691 24.2693 -2.9788 -4.40519 -2.55184 0.0894354 -1.36639 -0.258877 -3.53352 
138 1.74578 5.14181 24.2739 -2.80538 -3.68621 -2.34655 -0.173869 -0.847763 -0.195147 -3.53326 
139 -0.493683 6.48021 26.8301 -3.03256 -4.40178 -2.44104 0.102927 -1.36765 -0.312561 -3.53347 
140 3.90101 3.77791 24.2752 -3.38078 -3.11822 -2.33214 -0.437319 -0.387225 0.661952 -3.53327 
141 1.86119 2.97927 25.5578 -3.36064 -3.66055 -2.54174 -0.30092 -0.416232 0.128826 -3.52967 
142 1.82475 3.00033 28.1216 -3.35645 -3.64858 -2.38529 -0.276582 -0.434092 0.104226 -3.52961 
143 1.68331 5.16058 26.8358 -2.83637 -3.68751 -2.22303 -0.14605 -0.862097 -0.236434 -3.53321 
144 3.85421 3.82299 26.837 -3.38861 -3.14493 -2.20843 -0.413555 -0.421008 0.636379 -3.53322 
145 -0.354259 4.31396 28.118 -3.60068 -4.6592 -2.67722 0.092933 -0.925779 -0.249868 -3.53369 
146 -0.405778 4.30902 30.6842 -3.62126 -4.59141 -2.49063 0.0987296 -0.924184 -0.288469 -3.53377 
147 -0.571156 6.47269 29.3933 -3.08363 -4.3816 -2.29825 0.114442 -1.36766 -0.367838 -3.53344 
148 1.62067 5.17848 29.4003 -2.86281 -3.67463 -2.07159 -0.117839 -0.878125 -0.279479 -3.53316 
149 -0.648377 6.46463 31.9597 -3.12061 -4.33275 -2.1188 0.123235 -1.36609 -0.419678 -3.53346 
150 3.80691 3.86731 29.4014 -3.38871 -3.16113 -2.05764 -0.38714 -0.456784 0.607653 -3.53316 
151 1.78816 3.02095 30.6884 -3.33478 -3.61431 -2.19799 -0.251517 -0.451372 0.0798442 -3.52956 
152 1.75156 3.04132 33.2584 -3.28222 -3.54648 -1.98199 -0.22812 -0.464531 0.0599636 -3.52954 
153 1.55798 5.19575 31.9678 -2.87411 -3.63847 -1.89075 -0.091404 -0.893767 -0.319626 -3.5331 
154 3.75931 3.91101 31.9689 -3.37107 -3.15674 -1.87788 -0.360383 -0.490946 0.578531 -3.53309 
155 -0.457145 4.3039 33.2537 -3.61134 -4.48513 -2.27095 0.101208 -0.921543 -0.320238 -3.53393 
156 -0.508318 4.29881 35.8267 -3.55288 -4.33138 -2.02701 0.100873 -0.917011 -0.340581 -3.5342 
157 -0.725324 6.45642 34.5295 -3.12552 -4.23962 -1.90311 0.128408 -1.36245 -0.460936 -3.53359 
158 1.49538 5.21275 34.5386 -2.8539 -3.56683 -1.68231 -0.0697632 -0.904819 -0.349827 -3.53306 
159 -0.801932 6.44846 37.103 -3.0766 -4.08743 -1.66148 0.129611 -1.35541 -0.48588 -3.53386 
160 3.71171 3.95435 34.5396 -3.32037 -3.11769 -1.67029 -0.336507 -0.51764 0.55405 -3.53306 
161 1.71515 3.06164 35.8318 -3.18462 -3.43496 -1.74459 -0.209102 -0.469727 0.0491271 -3.5296 
162 1.67907 3.08205 38.4084 -3.03626 -3.2779 -1.49668 -0.195621 -0.466619 0.0469068 -3.52976 
163 1.43315 5.22987 37.1128 -2.7829 -3.44684 -1.45327 -0.0556416 -0.905996 -0.364124 -3.53312 
164 3.6645 3.99761 37.1138 -3.21826 -3.02958 -1.44158 -0.318339 -0.531449 0.539381 -3.53311 
165 -0.559212 4.29383 38.4029 -3.43666 -4.13248 -1.77418 0.0993494 -0.90941 -0.351021 -3.53455 
166 -0.609741 4.28879 40.9817 -3.27001 -3.90459 -1.52505 0.0988542 -0.898214 -0.360593 -3.5349 
167 -0.878071 6.44084 39.6798 -2.96183 -3.87575 -1.41403 0.128102 -1.34314 -0.497604 -3.53423 
168 1.3715 5.24733 39.6901 -2.65031 -3.27379 -1.21564 -0.0494258 -0.896011 -0.365836 -3.53329 
169 -0.953636 6.43328 42.259 -2.78944 -3.62491 -1.17872 0.126659 -1.32557 -0.508917 -3.53459 
170 3.61793 4.04097 39.691 -3.05431 -2.88734 -1.20421 -0.306289 -0.53362 0.533059 -3.53328 
171 1.64333 3.10245 40.9874 -2.84546 -3.08426 -1.24615 -0.186026 -0.460539 0.0451952 -3.52999 
172 1.60784 3.12272 43.5686 -2.6221 -2.86227 -0.990763 -0.177782 -0.458137 0.0355775 -3.53026 
173 1.31049 5.26498 42.2698 -2.46246 -3.05698 -0.979661 -0.0482614 -0.881381 -0.369496 -3.53353 
174 3.57194 4.08434 42.2706 -2.83589 -2.69951 -0.969979 -0.298152 -0.534069 0.524066 -3.53352 
175 -0.659894 4.28352 43.5625 -3.06394 -3.65837 -1.27931 0.100568 -0.884296 -0.377688 -3.53521 
176 -0.709863 4.27798 46.1447 -2.8303 -3.3924 -1.01742 0.103704 -0.870139 -0.407549 -3.53547 
177 -1.02869 6.42559 44.8395 -2.56647 -3.34233 -0.962591 0.126789 -1.305 -0.525026 -3.53494 
178 1.24998 5.28267 44.851 -2.22652 -2.80146 -0.746942 -0.0502982 -0.870632 -0.386718 -3.53384 
179 -1.10363 6.4181 47.4204 -2.30027 -3.01778 -0.778125 0.129367 -1.2863 -0.535906 -3.53526 
180 3.52632 4.12763 44.8518 -2.56816 -2.47368 -0.744629 -0.291195 -0.541857 0.503669 -3.53381 
181 1.57237 3.14284 46.1515 -2.37046 -2.6149 -0.713118 -0.170388 -0.467175 0.00958564 -3.53052 
182 1.53673 3.16322 48.7363 -2.09171 -2.35905 -0.342736 -0.1835 -0.49085 -0.0293463 -3.53014 
183 1.18947 5.30039 47.4331 -1.9485 -2.50493 -0.516057 -0.0634378 -0.876867 -0.430736 -3.5341 
184 3.48077 4.17092 47.4337 -2.24412 -2.22002 -0.535828 -0.285136 -0.56809 0.460426 -3.53401 
185 -0.760225 4.27323 48.7285 -2.60594 -3.07545 -0.673 0.0969015 -0.865522 -0.410052 -3.53513 
186 -0.811621 4.26877 51.3169 -1.98818 -2.35142 0.310207 0.0839132 -0.840637 -0.65359 -3.53805 
187 -1.17889 6.41384 50.0002 -2.06298 -2.54063 -0.337232 0.0920943 -1.28844 -0.615107 -3.5357 
188 1.12775 5.31799 50.0156 -1.5685 -2.07864 -0.0194542 -0.111724 -0.952057 -0.597208 -3.53483 
189 -1.25707 6.40546 52.5877 -1.61231 -2.48691 0.64324 0.175643 -1.31599 -0.613311 -3.53282 
190 3.43505 4.21346 50.0156 -1.75705 -1.85156 -0.0339583 -0.309282 -0.673855 0.312911 -3.5349 
191 1.50027 3.18358 51.3264 -1.43147 -1.70138 0.660137 -0.172554 -0.547159 -0.133635 -3.53273 
192 1.46587 3.20964 53.9052 0.0267776 0.954079 -0.795582 0.56634 -0.560911 0.139081 -3.37565 
193 1.06597 5.33731 52.6041 -1.24905 -1.89841 0.441709 -0.236932 -0.801385 -0.410902 -3.52779 
194 3.38747 4.26008 52.6041 -1.41007 -1.71329 0.390059 -0.390752 -0.639539 0.587199 -3.52746 
195 -0.866323 4.2769 53.8949 -0.0509405 -0.206005 -1.1805 0.0793447 -1.26165 1.02745 -3.38131 
196 1.3298 4.1174 -56.3442 5.06939 2.9057 1.60245 -1.25467 -0.273901 0.110249 -2.79034 
197 -1.33605 6.40133 55.1665 4.1803 2.79732 1.29005 0.319959 -1.52315 0.197736 -3.26107 
198 1.00488 5.36129 55.1754 5.6418 6.63177 2.70761 0.369733 -0.636494 -0.0327931 -3.15047 
199 1.98371 6.26223 -55.1334 6.93978 9.11553 2.92894 0.134213 -0.84789 -0.525604 -3.02309 
200 3.34328 4.30996 55.1754 5.53061 7.35739 2.86899 0.118753 -0.278727 0.56253 -3.15115 
201 2.87095 2.09325 -56.362 4.04252 6.00648 1.88086 -3.16451 0.252581 0.341731 -2.79939 
202 2.84551 2.1252 -53.8874 0.164843 0.763182 -3.02658 -0.982169 -0.732841 -0.162391 -3.51266 
203 3.53831 4.21674 -55.1525 6.03163 6.27388 1.75944 0.30244 -1.21956 -0.044478 -3.1433 
204 5.07312 2.13635 -55.1525 6.04996 7.03883 2.00323 0.446081 -0.528134 0.080499 -3.14511 
205 1.29262 4.16451 -53.8815 0.861261 -0.348493 -3.67502 -0.408976 -0.573877 0.839013 -3.51412 
206 1.24176 4.17585 -51.3147 -1.28633 -1.91048 -0.370036 -0.214918 -0.880753 0.219362 -3.53903 
207 1.90264 6.26187 -52.5941 -0.917939 -1.45706 -0.573467 -0.184232 -1.1681 0.819881 -3.52791 
208 3.4607 4.22944 -52.6036 -0.748716 -0.925795 0.0957731 -0.677571 -0.49614 0.191313 -3.53019 
209 1.82403 6.27282 -50.0101 -1.63999 -2.32337 -0.256411 -0.201989 -1.2814 0.438372 -3.53674 
210 5.01221 2.17771 -52.6036 -1.34176 -0.348399 0.0549546 -0.502594 0.0191025 0.991473 -3.52952 
211 2.80522 2.14769 -51.32 -1.1033 -0.946438 -0.111358 -0.27791 -0.332985 0.261175 -3.53413 
212 2.77231 2.17485 -48.7404 -1.96432 -1.83652 -0.541303 -0.292338 -0.215449 0.349928 -3.53087 
213 3.40036 4.25787 -50.02 -1.43018 -1.65401 -0.136481 -0.408444 -0.706438 0.290933 -3.53495 
214 4.971 2.23184 -50.02 -1.84308 -1.27354 -0.111336 -0.296351 0.0243931 0.841073 -3.53498 
215 1.18968 4.18068 -48.7354 -2.17571 -2.75386 -0.778205 -0.181123 -0.848414 0.297558 -3.53641 
216 1.13982 4.18727 -46.1537 -2.63387 -3.19523 -0.968782 -0.168756 -0.83233 0.411857 -3.53602 
217 1.74857 6.27909 -47.4304 -2.09804 -2.83435 -0.666539 -0.215039 -1.24014 0.555701 -3.53587 
218 3.34505 4.28795 -47.441 -1.89519 -2.2092 -0.556578 -0.302132 -0.635238 0.34493 -3.53413 
219 1.67466 6.29126 -44.8491 -2.46719 -3.19712 -0.857441 -0.203688 -1.24403 0.611671 -3.53531 
220 4.93493 2.28494 -47.4402 -2.31739 -1.78993 -0.536312 -0.213426 0.11286 0.873598 -3.53418 
221 2.7422 2.20266 -46.1592 -2.35947 -2.27187 -0.734571 -0.234991 -0.155295 0.402103 -3.53072 
222 2.71394 2.2317 -43.5772 -2.66988 -2.59777 -0.946845 -0.220523 -0.145325 0.42093 -3.53035 
223 3.2916 4.32053 -44.8602 -2.23047 -2.57856 -0.711677 -0.263078 -0.622181 0.379 -3.5339 
224 4.90216 2.33841 -44.8593 -2.65182 -2.14878 -0.717816 -0.181119 0.14918 0.90378 -3.53391 
225 1.09071 4.19619 -43.5716 -2.97067 -3.51839 -1.19776 -0.157708 -0.840707 0.434853 -3.53551 
226 1.04149 4.20572 -40.9903 -3.22799 -3.79543 -1.43921 -0.155934 -0.854256 0.439524 -3.53507 
227 1.60095 6.30505 -42.2678 -2.74799 -3.50614 -1.08556 -0.203608 -1.2621 0.625108 -3.53481 
228 3.23908 4.35451 -42.2791 -2.50243 -2.87801 -0.912079 -0.246948 -0.625483 0.395304 -3.53358 
229 1.52677 6.31944 -39.6878 -2.95664 -3.77512 -1.32965 -0.210374 -1.28155 0.626993 -3.53436 
230 4.87091 2.39271 -42.2782 -2.93358 -2.43375 -0.924505 -0.171572 0.159798 0.928045 -3.53358 
231 2.6862 2.2614 -40.9959 -2.92347 -2.86176 -1.17785 -0.218728 -0.14446 0.433743 -3.53004 
232 2.65853 2.29161 -38.4161 -3.13441 -3.07914 -1.42062 -0.223936 -0.144614 0.444346 -3.52979 
233 3.18678 4.38947 -39.6989 -2.71771 -3.12062 -1.13629 -0.241906 -0.631169 0.404529 -3.53331 
234 4.84022 2.44792 -39.698 -3.16846 -2.65402 -1.14933 -0.172854 0.163688 0.949054 -3.53331 
235 0.99187 4.21543 -38.4106 -3.42474 -4.04127 -1.69024 -0.160806 -0.867184 0.439171 -3.53467 
236 0.941811 4.22529 -35.8334 -3.56266 -4.25283 -1.94584 -0.169746 -0.877712 0.432818 -3.53429 
237 1.45195 6.33425 -37.11 -3.09642 -4.00008 -1.58176 -0.22051 -1.29776 0.620575 -3.53396 
238 3.13445 4.42532 -37.1208 -2.87687 -3.30664 -1.37046 -0.245279 -0.638145 0.405815 -3.53313 
239 1.37656 6.34953 -34.5352 -3.16836 -4.17008 -1.82847 -0.229977 -1.31034 0.600878 -3.53365 
240 4.80982 2.50405 -37.1199 -3.35372 -2.81258 -1.3829 -0.183383 0.162707 0.962439 -3.53313 
241 2.63085 2.32232 -35.8386 -3.30183 -3.25024 -1.66756 -0.235739 -0.147213 0.449477 -3.52962 
242 2.60314 2.35345 -33.2641 -3.42134 -3.37274 -1.90843 -0.254041 -0.155584 0.445295 -3.52953 
243 3.08203 4.46194 -34.5455 -2.97788 -3.43467 -1.60102 -0.256525 -0.649718 0.393929 -3.53304 
244 4.77963 2.56098 -34.5445 -3.48422 -2.91136 -1.6132 -0.203404 0.151863 0.96316 -3.53305 
245 0.891392 4.23531 -33.2592 -3.64134 -4.42117 -2.19475 -0.179606 -0.88607 0.416392 -3.534 
246 0.8407 4.24543 -30.6884 -3.66845 -4.54349 -2.42347 -0.187552 -0.893064 0.388825 -3.5338 
247 1.30072 6.36514 -31.964 -3.18256 -4.28311 -2.05369 -0.235913 -1.32033 0.565559 -3.53347 
248 3.02942 4.49907 -31.9735 -3.02567 -3.51181 -1.81539 -0.274076 -0.666867 0.367719 -3.53305 
249 1.2245 6.38076 -29.3964 -3.15706 -4.34886 -2.24643 -0.237448 -1.32831 0.518135 -3.53341 
250 4.7495 2.61845 -31.9725 -3.5626 -2.95963 -1.82802 -0.231444 0.128712 0.951104 -3.53305 
251 2.57534 2.38485 -30.6928 -3.49459 -3.4507 -2.13202 -0.277165 -0.170363 0.431602 -3.52952 
252 2.54732 2.41627 -28.1248 -3.5303 -3.49451 -2.32995 -0.302275 -0.189196 0.411729 -3.52956 
253 2.97646 4.5363 -29.4048 -3.03286 -3.55195 -2.00534 -0.295042 -0.687181 0.331677 -3.5331 
254 4.71915 2.67613 -29.4037 -3.59947 -2.97263 -2.01876 -0.264201 0.0960273 0.930721 -3.5331 
255 0.789784 4.25543 -28.121 -3.65891 -4.62565 -2.62239 -0.191928 -0.899107 0.353231 -3.53368 
256 0.738663 4.26513 -25.5567 -3.62805 -4.67734 -2.78796 -0.192257 -0.904204 0.314148 -3.53362 
257 1.14792 6.39601 -26.832 -3.10946 -4.38104 -2.40341 -0.234873 -1.33425 0.464648 -3.53341 
258 2.92299 4.57325 -26.8393 -3.01377 -3.56874 -2.16756 -0.316265 -0.707643 0.291772 -3.53316 
259 1.07101 6.41058 -24.2703 -3.05303 -4.39199 -2.52695 -0.228743 -1.3383 0.410429 -3.53346 
260 4.68829 2.73374 -26.8381 -3.60739 -2.96497 -2.18143 -0.298112 0.0587003 0.906973 -3.53315 
261 2.51894 2.44754 -25.5599 -3.53961 -3.51576 -2.49827 -0.326705 -0.209154 0.389604 -3.52961 
262 2.49011 2.4785 -22.9976 -3.53238 -3.52387 -2.6369 -0.348682 -0.228152 0.368007 -3.52967 
263 2.8689 4.60965 -24.2766 -2.98031 -3.5724 -2.3022 -0.335276 -0.726177 0.252481 -3.53322 
264 4.65669 2.79109 -24.2753 -3.59716 -2.94758 -2.31577 -0.330577 0.0209925 0.883371 -3.53321 
265 0.687347 4.27434 -22.995 -3.58767 -4.70804 -2.92136 -0.188785 -0.908315 0.275287 -3.5336 
266 0.635847 4.28294 -20.4356 -3.54544 -4.72522 -3.02636 -0.182056 -0.911518 0.238862 -3.5336 
267 0.993789 6.42426 -21.7109 -2.99632 -4.39089 -2.62199 -0.219597 -1.34088 0.358887 -3.53352 
268 2.81417 4.64534 -21.7161 -2.94088 -3.56969 -2.41142 -0.350656 -0.741839 0.21624 -3.53326 
269 0.916291 6.43692 -19.1533 -2.94407 -4.38386 -2.694 -0.207942 -1.34248 0.311636 -3.53359 
270 4.62422 2.84805 -21.7149 -3.57675 -2.92755 -2.42394 -0.360166 -0.014415 0.861838 -3.53325 
271 2.46078 2.50909 -20.4377 -3.51595 -3.52539 -2.74824 -0.367348 -0.245138 0.348374 -3.52971 
272 2.43094 2.53925 -17.8796 -3.49519 -3.5244 -2.83588 -0.382507 -0.259805 0.331181 -3.52975 
273 2.75877 4.68023 -19.1576 -2.90074 -3.5647 -2.49835 -0.361898 -0.754492 0.183946 -3.5333 
274 4.59083 2.90455 -19.1564 -3.55154 -2.90898 -2.50931 -0.386332 -0.0462899 0.843143 -3.53329 
275 0.584176 4.29088 -17.878 -3.50572 -4.73422 -3.10756 -0.172676 -0.913977 0.205818 -3.53361 
276 0.532354 4.29813 -15.3217 -3.47063 -4.73851 -3.16944 -0.161209 -0.915879 0.176273 -3.53362 
277 0.838547 6.44851 -16.5972 -2.89846 -4.37463 -2.74798 -0.194257 -1.34351 0.269062 -3.53365 
278 2.70275 4.71428 -16.6007 -2.86286 -3.55976 -2.56636 -0.369085 -0.764439 0.155593 -3.53332 
279 0.760589 6.459 -14.0421 -2.86015 -4.36534 -2.78802 -0.17898 -1.34427 0.230853 -3.53371 
280 4.55651 2.96055 -16.5994 -3.52486 -2.89391 -2.57556 -0.409048 -0.0743825 0.827357 -3.53331 
281 2.4006 2.56896 -15.323 -3.4731 -3.52323 -2.90362 -0.394337 -0.272274 0.316372 -3.52978 
282 2.36978 2.59823 -12.7675 -3.4514 -3.52307 -2.95502 -0.403187 -0.282856 0.303638 -3.5298 
283 2.64612 4.74747 -14.045 -2.82866 -3.55609 -2.61868 -0.372599 -0.772153 0.130733 -3.53334 
284 4.52128 3.01604 -14.0437 -3.49863 -2.88314 -2.62611 -0.428549 -0.0989885 0.81419 -3.53333 
285 0.480399 4.30466 -12.7666 -3.44096 -4.74028 -3.21585 -0.148132 -0.917383 0.149901 -3.53364 
286 0.42833 4.31049 -10.2123 -3.41675 -4.74081 -3.24992 -0.133837 -0.918609 0.126178 -3.53365 
287 0.682448 6.46838 -11.4879 -2.82895 -4.3571 -2.8173 -0.162491 -1.34494 0.196376 -3.53375 
288 2.58894 4.77981 -11.4902 -2.79868 -3.55425 -2.65815 -0.37292 -0.778124 0.108752 -3.53335 
289 0.604151 6.47668 -8.93432 -2.80434 -4.35043 -2.83817 -0.145102 -1.34561 0.164897 -3.53379 
290 4.48516 3.07099 -11.489 -3.4739 -2.87676 -2.66392 -0.445157 -0.120644 0.803204 -3.53335 
291 2.33849 2.62704 -10.213 -3.43101 -3.5245 -2.9931 -0.409439 -0.291923 0.29259 -3.52982 
292 2.30676 2.65539 -7.65904 -3.41236 -3.52768 -3.02027 -0.413449 -0.299834 0.282835 -3.52983 
293 2.53124 4.81131 -8.93617 -2.77296 -3.55441 -2.68709 -0.370516 -0.782791 0.0890164 -3.53336 
294 4.44821 3.12542 -8.93494 -3.45115 -2.87454 -2.69136 -0.459199 -0.139948 0.79393 -3.53336 
295 0.376165 4.3156 -7.65855 -3.39776 -4.74086 -3.27406 -0.118633 -0.91964 0.104536 -3.53366 
296 0.323925 4.32002 -5.10528 -3.38361 -4.74082 -3.29001 -0.102761 -0.920533 0.0844231 -3.53367 
297 0.525728 6.48389 -6.38119 -2.78569 -4.34554 -2.85234 -0.127062 -1.34633 0.135693 -3.53381 
298 2.47305 4.84197 -6.38264 -2.75132 -3.55656 -2.70732 -0.365787 -0.786523 0.0709368 -3.53337 
299 0.447203 6.49004 -3.82837 -2.77245 -4.34247 -2.86099 -0.108564 -1.34712 0.108093 -3.53383 
300 4.41044 3.1793 -6.38142 -3.43061 -2.87613 -2.71024 -0.470958 -0.157472 0.78593 -3.53337 
301 2.27462 2.68329 -5.10559 -3.39565 -3.53262 -3.03836 -0.415506 -0.306908 0.274013 -3.52984 
302 2.24208 2.71073 -2.55243 -3.38096 -3.53923 -3.04865 -0.415829 -0.313425 0.265802 -3.52985 
303 2.41441 4.8718 -3.82946 -2.73354 -3.56061 -2.72018 -0.359051 -0.789621 0.0539839 -3.53337 
304 4.37189 3.23264 -3.82825 -3.41233 -2.88115 -2.72186 -0.480652 -0.173726 0.778815 -3.53337 
305 0.271625 4.32373 -2.55228 -3.37396 -4.74091 -3.29898 -0.0864132 -0.921328 0.0653326 -3.53367 
306 0.368603 6.49512 -1.27573 -2.7642 -4.34118 -2.86486 -0.0897568 -1.34801 0.0814875 -3.53384 
307 2.35534 4.9008 -1.27649 -2.71946 -3.56645 -2.72657 -0.350541 -0.792335 0.0376834 -3.53338 
308 4.33259 3.28542 -1.27528 -3.39634 -2.88933 -2.72707 -0.488427 -0.189159 0.772247 -3.53338 