ITEM: TIMESTEP
212
ITEM: NUMBER OF ATOMS
37664
ITEM: BOX BOUNDS ff ff ff
-100 100
-100 100
-156.15 156.15
ITEM: ATOMS id x y z v_peratom_sxx v_peratom_syy v_peratom_szz v_peratom_sxy v_peratom_sxz v_peratom_syz c_atomPE 
1 -0.0034172 -0.00165849 -0.000404644 -5.18097 -5.16853 -9.54233 0.000693337 -0.00823032 -0.0456307 -3.51525 
2 -0.00366638 -0.00138925 2.55276 -5.17875 -5.16716 -9.53866 -0.000463815 -0.00688598 -0.0450102 -3.51526 
3 -0.0038988 -0.00110158 5.10604 -5.17199 -5.16173 -9.52476 -0.00176152 -0.00468843 -0.0442642 -3.51532 
4 -0.00410959 -0.000800864 7.65958 -5.16021 -5.15181 -9.49963 -0.00314136 -0.00153666 -0.0433258 -3.51544 
5 -0.00428966 -0.000493888 10.2135 -5.14271 -5.13666 -9.46165 -0.00451078 0.00247405 -0.0420756 -3.51561 
6 -0.00442775 -0.000187394 12.7681 -5.1185 -5.11516 -9.40857 -0.00576855 0.00706281 -0.0403985 -3.51586 
7 -0.00451322 0.00011285 15.3235 -5.08618 -5.08569 -9.33736 -0.00683021 0.0118393 -0.0382376 -3.51619 
8 -0.00453825 0.000402107 17.8799 -5.04366 -5.04595 -9.24407 -0.00764232 0.016401 -0.0356201 -3.51662 
9 -0.004499 0.000676074 20.4378 -4.98795 -4.99282 -9.12381 -0.00818421 0.0204135 -0.0326565 -3.51716 
10 -0.00439552 0.000930031 22.9975 -4.91496 -4.92204 -8.97085 -0.00846264 0.0236585 -0.0295217 -3.51785 
11 -0.00423084 0.00115814 25.5593 -4.81929 -4.82817 -8.77932 -0.00850446 0.0260491 -0.0264304 -3.5187 
12 -0.00400969 0.00135307 28.1238 -4.69459 -4.7048 -8.5449 -0.00835039 0.0276187 -0.0236091 -3.51973 
13 -0.0037372 0.00150612 30.6913 -4.53498 -4.54608 -8.26795 -0.00804888 0.0284927 -0.0212639 -3.52092 
14 -0.00341785 0.00160755 33.262 -4.33887 -4.35044 -7.95716 -0.00764789 0.0288505 -0.0195485 -3.52222 
15 -0.00305462 0.0016469 35.8359 -4.1141 -4.12576 -7.63001 -0.00718535 0.0288869 -0.0185485 -3.52348 
16 -0.00264849 0.00161291 38.4126 -3.87669 -3.88811 -7.30481 -0.00668168 0.0287752 -0.018285 -3.52458 
17 -0.00219769 0.00149268 40.9918 -3.6382 -3.64909 -6.98796 -0.00613415 0.0286451 -0.0187454 -3.52547 
18 -0.00169477 0.00126888 43.5732 -3.3996 -3.40964 -6.66667 -0.00550164 0.0286521 -0.0199551 -3.5262 
19 -0.00112176 0.000915211 46.157 -3.13578 -3.14438 -6.30409 -0.0046416 0.0289762 -0.0219854 -3.52694 
20 -0.000458141 0.000391622 48.7436 -2.75343 -2.75822 -5.86469 -0.00261992 0.0289225 -0.024743 -3.52781 
21 5.95933e-07 -4.11185e-08 51.3317 -1.92308 -1.9227 -4.92057 0.000202009 -0.0014813 0.0013131 -3.53204 
22 4.01304e-07 -1.42881e-06 53.9138 -0.852017 -0.85203 -8.91785 -1.83998e-06 -3.37717e-05 -7.32284e-05 -3.48168 
23 8.71386e-07 -1.98378e-06 56.3885 1.68556 1.68557 1.87675 -2.06753e-05 2.93511e-05 3.36285e-07 -2.55581 
24 -1.23087e-07 -1.12453e-06 -53.8876 -2.60675 -2.60678 -6.54952 -1.55516e-05 5.69059e-06 -3.60911e-05 -3.40183 
25 1.02659e-07 -1.55837e-06 -51.3239 -2.07948 -2.07966 -5.58211 -0.000527368 0.000334826 0.00247619 -3.52873 
26 -6.32224e-05 -0.000695293 -48.7463 -2.70083 -2.69788 -6.1569 0.00685725 -0.00417399 -0.0434864 -3.52636 
27 -0.000119692 -0.00164577 -46.1648 -3.029 -3.02379 -6.35881 0.0121742 -0.00182914 -0.0397924 -3.52674 
28 -0.000136592 -0.0023397 -43.5825 -3.31081 -3.30355 -6.61964 0.0135288 0.0023307 -0.036421 -3.5263 
29 -0.000107113 -0.00283712 -41.0012 -3.5666 -3.55707 -6.90762 0.0137187 0.00625532 -0.0337712 -3.5257 
30 -5.38734e-05 -0.003179 -38.4215 -3.817 -3.80523 -7.21546 0.0132354 0.00936598 -0.0317639 -3.52487 
31 -3.29233e-06 -0.0033936 -35.844 -4.06326 -4.04947 -7.5393 0.0123216 0.0112491 -0.0304095 -3.52381 
32 1.88231e-05 -0.00350433 -33.2693 -4.29606 -4.28065 -7.86819 0.0111713 0.0116366 -0.0298137 -3.52259 
33 -9.66174e-06 -0.00353282 -30.6976 -4.50247 -4.48594 -8.18476 0.00995733 0.0104911 -0.0300675 -3.52131 
34 -0.00010435 -0.00349903 -28.1291 -4.67406 -4.65693 -8.47209 0.00881295 0.00803709 -0.0311742 -3.52009 
35 -0.000272192 -0.00342034 -25.5637 -4.80987 -4.7926 -8.71972 0.00781642 0.00471519 -0.0330197 -3.51901 
36 -0.000510631 -0.00331067 -23.001 -4.91391 -4.89689 -8.92473 0.00698935 0.00107499 -0.0353807 -3.5181 
37 -0.000808393 -0.00318004 -20.4406 -4.99201 -4.97549 -9.08951 0.00630772 -0.00235834 -0.0379716 -3.51736 
38 -0.00114801 -0.00303476 -17.8822 -5.04992 -5.03403 -9.21907 0.00572024 -0.00519426 -0.0405015 -3.51676 
39 -0.00150944 -0.0028781 -15.3253 -5.09252 -5.07731 -9.31916 0.00516876 -0.007239 -0.0427217 -3.5163 
40 -0.00187384 -0.00271098 -12.7695 -5.12367 -5.10908 -9.39515 0.00460429 -0.00849984 -0.044458 -3.51595 
41 -0.00222652 -0.00253264 -10.2147 -5.14621 -5.13213 -9.45164 0.00399426 -0.00913146 -0.0456264 -3.51568 
42 -0.00255846 -0.00234104 -7.6606 -5.16214 -5.14847 -9.49229 0.00331894 -0.00933928 -0.0462318 -3.51549 
43 -0.00286639 -0.00213334 -5.10695 -5.17281 -5.15948 -9.51984 0.00256084 -0.00927267 -0.0463518 -3.51536 
44 -0.0031515 -0.00190652 -2.5536 -5.17898 -5.16601 -9.53616 0.00169545 -0.00894791 -0.0461085 -3.51528 
45 0.0927106 2.15859 1.27494 -4.05287 -5.13298 -3.83748 -0.0520938 -0.443972 -0.00416685 -3.52909 
46 0.0662089 2.15984 3.82809 -4.04823 -5.13284 -3.82966 -0.0408177 -0.443218 -0.0136788 -3.5291 
47 0.0397333 2.16077 6.38142 -4.04517 -5.13079 -3.81346 -0.0293032 -0.441819 -0.0234319 -3.52912 
48 0.0133091 2.16136 8.9351 -4.04417 -5.12652 -3.78798 -0.0174966 -0.43991 -0.0336111 -3.52915 
49 -0.0130385 2.1616 11.4893 -4.04575 -5.11947 -3.75181 -0.00543748 -0.437715 -0.044439 -3.52918 
50 -0.0392874 2.16149 14.0442 -4.05027 -5.10874 -3.70296 0.00670942 -0.435463 -0.0562161 -3.52922 
51 -0.0654211 2.16103 16.6 -4.05771 -5.09298 -3.63872 0.0186564 -0.433335 -0.0693278 -3.52927 
52 -0.0914293 2.16021 19.1571 -4.06747 -5.07017 -3.55562 0.0300093 -0.431439 -0.0842043 -3.52934 
53 -0.117307 2.15904 21.7157 -4.07804 -5.03738 -3.4494 0.040286 -0.429797 -0.101218 -3.52942 
54 -0.143054 2.15754 24.2763 -4.08641 -4.99038 -3.31534 0.0489388 -0.428359 -0.120471 -3.52952 
55 -0.168675 2.15573 26.8392 -4.08713 -4.92324 -3.149 0.0554114 -0.427003 -0.141419 -3.52966 
56 -0.194173 2.15366 29.4049 -4.07117 -4.82827 -2.94792 0.0592852 -0.425534 -0.16234 -3.52986 
57 -0.219549 2.15142 31.9738 -4.02561 -4.6974 -2.71421 0.0605612 -0.423675 -0.18006 -3.53012 
58 -0.244786 2.1491 34.546 -3.93695 -4.52623 -2.45685 0.0599928 -0.421051 -0.191094 -3.53047 
59 -0.269847 2.14673 37.1213 -3.79983 -4.32015 -2.19002 0.0590728 -0.417197 -0.195209 -3.53088 
60 -0.294682 2.14424 39.6993 -3.62269 -4.09379 -1.92509 0.0593096 -0.411753 -0.197513 -3.53128 
61 -0.319264 2.14151 42.2796 -3.41749 -3.85777 -1.66225 0.0613811 -0.404901 -0.204199 -3.53165 
62 -0.343625 2.13847 44.862 -3.19088 -3.60883 -1.38981 0.0645398 -0.397216 -0.222009 -3.53193 
63 -0.367919 2.1353 47.4463 -2.91341 -3.29687 -1.10386 0.0655779 -0.390858 -0.243114 -3.53223 
64 -0.392512 2.13371 50.032 -2.43039 -2.80164 -0.490874 0.0607136 -0.411356 -0.208385 -3.53325 
65 -0.418483 2.1304 52.6263 -1.76583 -2.00545 -0.561367 0.0454605 -0.308948 -0.730006 -3.52457 
66 -0.44812 2.14653 55.1778 6.97666 7.73845 2.43085 0.0330327 -0.597315 1.77018 -3.02528 
67 0.649859 2.05055 -55.162 1.38949 0.842444 -0.678212 -0.188248 -0.0991956 1.20764 -3.26036 
68 0.633027 2.08274 -52.6122 -1.11207 -2.21875 -0.45774 -0.374502 -0.489287 -0.161437 -3.53567 
69 0.607028 2.08678 -50.0319 -2.00638 -2.55892 -0.880299 -0.166531 -0.426629 0.074708 -3.53397 
70 0.581591 2.08792 -47.4534 -2.64298 -3.07506 -1.21839 -0.123299 -0.396802 0.145291 -3.5329 
71 0.557007 2.09118 -44.8715 -3.06571 -3.4446 -1.37679 -0.100621 -0.391673 0.190734 -3.53225 
72 0.53257 2.09531 -42.2897 -3.366 -3.73011 -1.60529 -0.0906803 -0.395578 0.203757 -3.53182 
73 0.507996 2.09973 -39.7092 -3.611 -3.98604 -1.85545 -0.0886221 -0.4013 0.210732 -3.5314 
74 0.483186 2.1043 -37.1306 -3.81447 -4.22387 -2.11835 -0.0924757 -0.406901 0.214905 -3.53096 
75 0.458133 2.109 -34.5545 -3.97313 -4.43845 -2.38686 -0.100528 -0.411997 0.213962 -3.53053 
76 0.432862 2.11383 -31.9815 -4.08261 -4.61998 -2.64899 -0.110454 -0.416807 0.205232 -3.53016 
77 0.407401 2.11872 -29.4118 -4.14616 -4.76325 -2.89116 -0.119739 -0.421487 0.188763 -3.52986 
78 0.381763 2.12356 -26.8452 -4.17411 -4.87041 -3.10344 -0.126527 -0.42592 0.167208 -3.52964 
79 0.355957 2.12825 -24.2816 -4.17837 -4.94789 -3.28166 -0.129963 -0.429889 0.143713 -3.52947 
80 0.329997 2.13271 -21.7204 -4.16886 -5.00294 -3.42646 -0.129988 -0.433235 0.120628 -3.52935 
81 0.303901 2.13689 -19.1614 -4.1526 -5.04188 -3.54123 -0.126986 -0.435915 0.0992954 -3.52927 
82 0.277693 2.14075 -16.604 -4.13412 -5.06955 -3.63045 -0.121502 -0.437993 0.0802779 -3.52921 
83 0.251398 2.14428 -14.0479 -4.11611 -5.08944 -3.69861 -0.114097 -0.439597 0.063644 -3.52916 
84 0.225038 2.14748 -11.4928 -4.1 -5.10392 -3.74969 -0.105274 -0.440882 0.0491817 -3.52913 
85 0.19863 2.15035 -8.93852 -4.08636 -5.11456 -3.78696 -0.0954634 -0.441972 0.0365354 -3.52911 
86 0.172185 2.15289 -6.38475 -4.07518 -5.12233 -3.81292 -0.085018 -0.442918 0.0252882 -3.52909 
87 0.145711 2.15511 -3.83135 -4.06615 -5.1278 -3.82936 -0.0742096 -0.443668 0.0150125 -3.52908 
88 0.119217 2.15701 -1.27816 -4.05882 -5.1313 -3.83738 -0.0632133 -0.44408 0.00530799 -3.52908 
89 0.215555 4.32529 -0.00237828 -3.38896 -4.73731 -3.29923 -0.0749268 -0.922376 0.0355857 -3.53367 
90 0.285529 6.49785 1.27341 -2.77053 -4.33988 -2.86118 -0.0797775 -1.34837 0.0494288 -3.53385 
91 2.20537 2.73611 -0.00138082 -3.38855 -3.53909 -3.05218 -0.418176 -0.324811 0.245731 -3.52984 
92 2.17171 2.76285 2.55172 -3.37442 -3.54958 -3.04995 -0.417409 -0.330222 0.238164 -3.52984 
93 2.2916 4.92752 1.27394 -2.72268 -3.56718 -2.73056 -0.347094 -0.797148 0.0135028 -3.53337 
94 4.28831 3.33606 1.27587 -3.39954 -2.89487 -2.72773 -0.499411 -0.208748 0.758376 -3.53337 
95 0.162695 4.32784 2.55055 -3.38154 -4.73925 -3.29536 -0.0602008 -0.921997 0.0172151 -3.53368 
96 0.10986 4.3297 5.1036 -3.37782 -4.74141 -3.28528 -0.0449877 -0.921002 -0.00140941 -3.53369 
97 0.206306 6.50098 3.82612 -2.76461 -4.34371 -2.85532 -0.061626 -1.34796 0.023258 -3.53386 
98 2.23132 4.95501 3.82697 -2.71064 -3.5777 -2.72535 -0.336615 -0.798688 -0.00228741 -3.53337 
99 0.127148 6.50305 6.379 -2.76417 -4.34929 -2.84485 -0.0429459 -1.34742 -0.00347914 -3.53385 
100 4.24722 3.38788 3.82893 -3.3847 -2.90996 -2.72174 -0.504858 -0.223024 0.752266 -3.53337 
101 2.13773 2.78911 5.10495 -3.36183 -3.56164 -3.04087 -0.414889 -0.335375 0.230576 -3.52984 
102 2.10343 2.81488 7.65844 -3.35119 -3.57519 -3.02429 -0.410386 -0.340485 0.222744 -3.52983 
103 2.17072 4.98165 6.38019 -2.70231 -3.58992 -2.71383 -0.324169 -0.800078 -0.018468 -3.53337 
104 4.20547 3.4391 6.38218 -3.3721 -2.92793 -2.70949 -0.508051 -0.237354 0.745932 -3.53337 
105 0.0570902 4.33087 7.6569 -3.37864 -4.74373 -3.26852 -0.0292493 -0.919613 -0.0206466 -3.5337 
106 0.00442341 4.33133 10.2106 -3.38485 -4.74601 -3.24427 -0.0130704 -0.918095 -0.0409077 -3.5337 
107 0.0481017 6.50405 8.93218 -2.77005 -4.35658 -2.82934 -0.0238724 -1.34705 -0.0313145 -3.53384 
108 2.10986 5.0074 8.93374 -2.69838 -3.6037 -2.69533 -0.3097 -0.801654 -0.0355108 -3.53337 
109 -0.0307937 6.50398 11.4858 -2.78296 -4.36552 -2.80793 -0.00462948 -1.34706 -0.0608616 -3.53382 
110 4.16308 3.4897 8.93575 -3.36216 -2.94877 -2.69027 -0.508751 -0.252124 0.739103 -3.53336 
111 2.06886 2.84014 10.2124 -3.34302 -3.59008 -2.99913 -0.40369 -0.345862 0.214381 -3.52983 
112 2.03402 2.86487 12.7669 -3.33777 -3.60598 -2.96388 -0.39462 -0.351896 0.205112 -3.52981 
113 2.04874 5.03226 11.4878 -2.69952 -3.61883 -2.66883 -0.293183 -0.803812 -0.0539878 -3.53336 
114 4.12006 3.53963 11.4898 -3.35534 -2.97248 -2.66295 -0.506696 -0.267806 0.731433 -3.53336 
115 -0.0481085 4.33108 12.7649 -3.39714 -4.74789 -3.2112 0.00334605 -0.916675 -0.0626915 -3.5337 
116 -0.100481 4.33011 15.32 -3.41597 -4.74871 -3.16739 0.0197079 -0.915497 -0.086588 -3.53369 
117 -0.109506 6.50281 14.04 -2.80344 -4.37588 -2.77933 0.0145075 -1.34762 -0.0928283 -3.53378 
118 1.98741 5.05619 14.0425 -2.70629 -3.63499 -2.63288 -0.274599 -0.806972 -0.0745741 -3.53335 
119 -0.18801 6.50055 16.5951 -2.83188 -4.38724 -2.74162 0.0332457 -1.34877 -0.128001 -3.53374 
120 4.07643 3.58887 14.0445 -3.35199 -2.99901 -2.62603 -0.501588 -0.28495 0.722471 -3.53335 
121 1.99894 2.88906 15.3222 -3.33571 -3.62236 -2.91651 -0.383009 -0.359028 0.194467 -3.5298 
122 1.96361 2.91267 17.8786 -3.33676 -3.63839 -2.85444 -0.368687 -0.367722 0.181898 -3.52978 
123 1.92588 5.07916 16.598 -2.71908 -3.65164 -2.58552 -0.253911 -0.81156 -0.0980276 -3.53334 
124 4.03219 3.63739 16.6001 -3.35232 -3.02817 -2.57753 -0.493086 -0.304179 0.71165 -3.53335 
125 -0.152674 4.32843 17.876 -3.44147 -4.74742 -3.11023 0.0356626 -0.914603 -0.113242 -3.53369 
126 -0.204676 4.32603 20.4334 -3.47324 -4.7423 -3.0363 0.0508089 -0.913928 -0.14326 -3.53368 
127 -0.266283 6.49719 19.1511 -2.8684 -4.39874 -2.69214 0.0512961 -1.35042 -0.167185 -3.53368 
128 1.86415 5.10114 19.1547 -2.73797 -3.6679 -2.52417 -0.231076 -0.81799 -0.125132 -3.53332 
129 -0.344302 6.49273 21.7085 -2.91264 -4.40879 -2.62731 0.0683836 -1.35232 -0.211055 -3.53362 
130 3.98736 3.68515 19.1568 -3.3562 -3.05951 -2.51499 -0.480827 -0.326157 0.698288 -3.53333 
131 1.92805 2.9357 20.4363 -3.34032 -3.65265 -2.77444 -0.351499 -0.37842 0.166833 -3.52975 
132 1.89226 2.95812 22.9957 -3.34487 -3.66286 -2.67278 -0.331372 -0.39145 0.148791 -3.52971 
133 1.80224 5.12211 21.7129 -2.76257 -3.68227 -2.44568 -0.206088 -0.826648 -0.15657 -3.5333 
134 3.94192 3.7321 21.7149 -3.36301 -3.09197 -2.43547 -0.464498 -0.351514 0.681644 -3.53331 
135 -0.256477 4.32293 22.9924 -3.50995 -4.73054 -2.94135 0.0646882 -0.913314 -0.177011 -3.53368 
136 -0.308072 4.31917 25.5534 -3.54863 -4.70771 -2.8205 0.0767616 -0.912543 -0.214256 -3.53368 
137 -0.422046 6.4872 24.2675 -2.96327 -4.4145 -2.54251 0.0842354 -1.35403 -0.25986 -3.53355 
138 1.74016 5.14207 24.2728 -2.79157 -3.69225 -2.34644 -0.179093 -0.837817 -0.192666 -3.53326 
139 -0.499497 6.48068 26.8285 -3.01718 -4.41097 -2.4321 0.0985329 -1.355 -0.312889 -3.5335 
140 3.8959 3.77823 24.2747 -3.37119 -3.12356 -2.33566 -0.44399 -0.380672 0.661063 -3.53327 
141 1.85625 2.97994 25.5571 -3.34729 -3.66523 -2.54552 -0.308461 -0.406821 0.127642 -3.52966 
142 1.82008 3.00119 28.1211 -3.34195 -3.65381 -2.38924 -0.283406 -0.423827 0.104093 -3.52961 
143 1.67794 5.16103 26.8348 -2.82195 -3.69386 -2.22273 -0.150594 -0.851491 -0.232911 -3.53322 
144 3.84935 3.82351 26.8367 -3.37761 -3.15063 -2.21209 -0.419662 -0.413454 0.636306 -3.53322 
145 -0.359462 4.31482 28.1169 -3.58334 -4.66706 -2.66889 0.0864079 -0.911378 -0.253542 -3.53372 
146 -0.410648 4.31004 30.6833 -3.60356 -4.5991 -2.48328 0.093018 -0.909559 -0.291533 -3.5338 
147 -0.576639 6.47333 29.3921 -3.0681 -4.39031 -2.29005 0.11081 -1.3547 -0.367689 -3.53347 
148 1.61562 5.17911 29.3995 -2.84776 -3.68093 -2.07137 -0.121762 -0.866967 -0.275192 -3.53316 
149 -0.653461 6.46542 31.9587 -3.10473 -4.34071 -2.11167 0.12034 -1.35271 -0.419316 -3.53349 
150 3.80236 3.86801 29.4013 -3.37645 -3.16689 -2.06162 -0.392692 -0.448396 0.608166 -3.53316 
151 1.78381 3.02198 30.6881 -3.31942 -3.61979 -2.20234 -0.257646 -0.440475 0.0804147 -3.52956 
152 1.74758 3.04246 33.2583 -3.26637 -3.55202 -1.98693 -0.233563 -0.453204 0.0608187 -3.52954 
153 1.55331 5.19653 31.9672 -2.85846 -3.64442 -1.89088 -0.0947306 -0.882122 -0.314926 -3.5331 
154 3.75513 3.91187 31.9688 -3.35775 -3.1623 -1.88235 -0.365368 -0.481898 0.579321 -3.5331 
155 -0.461621 4.30503 33.2529 -3.59341 -4.49253 -2.26489 0.0962993 -0.90665 -0.323052 -3.53396 
156 -0.512338 4.30001 35.8261 -3.53505 -4.33845 -2.02241 0.0967692 -0.901765 -0.343569 -3.53423 
157 -0.729942 6.45732 34.5287 -3.10936 -4.24673 -1.89733 0.126246 -1.34853 -0.460726 -3.53362 
158 1.49116 5.21364 34.5382 -2.83786 -3.57227 -1.68297 -0.0724731 -0.892748 -0.345137 -3.53307 
159 -0.806011 6.44942 37.1024 -3.06063 -4.09374 -1.65712 0.128177 -1.34086 -0.486269 -3.53389 
160 3.70795 3.95531 34.5396 -3.30637 -3.1229 -1.67539 -0.340881 -0.508129 0.554737 -3.53307 
161 1.7116 3.06285 35.8318 -3.16881 -3.44044 -1.75019 -0.213842 -0.458168 0.0498139 -3.5296 
162 1.67599 3.08325 38.4084 -3.02115 -3.28326 -1.50285 -0.199623 -0.455013 0.046992 -3.52977 
163 1.42943 5.23082 37.1126 -2.76697 -3.45173 -1.45452 -0.0576829 -0.893604 -0.359912 -3.53313 
164 3.66122 3.99862 37.1139 -3.2042 -3.03438 -1.44736 -0.322041 -0.521709 0.539566 -3.53312 
165 -0.562713 4.29503 38.4024 -3.41958 -4.1392 -1.77096 0.0960519 -0.893735 -0.354627 -3.53458 
166 -0.612652 4.28991 40.9813 -3.25452 -3.91077 -1.52284 0.0963371 -0.882052 -0.365256 -3.53492 
167 -0.881536 6.44179 39.6793 -2.94692 -3.88133 -1.41088 0.127347 -1.32797 -0.499072 -3.53426 
168 1.36835 5.24826 39.69 -2.63524 -3.27811 -1.21733 -0.0507588 -0.883457 -0.362554 -3.5333 
169 -0.956412 6.43414 42.2586 -2.7766 -3.62953 -1.17619 0.126428 -1.30985 -0.511957 -3.53461 
170 3.61516 4.04195 39.6912 -3.041 -2.8917 -1.21058 -0.309265 -0.523893 0.532393 -3.53329 
171 1.64079 3.10356 40.9875 -2.8318 -3.08933 -1.25259 -0.189248 -0.449038 0.0443089 -3.53 
172 1.60589 3.12365 43.5687 -2.61074 -2.86672 -0.997018 -0.18021 -0.446837 0.0333839 -3.53027 
173 1.30798 5.26581 42.2697 -2.44912 -3.06055 -0.981472 -0.0489038 -0.868847 -0.36753 -3.53355 
174 3.56974 4.0852 42.2708 -2.82421 -2.7033 -0.976793 -0.300384 -0.524537 0.522326 -3.53354 
175 -0.662138 4.28447 43.5622 -3.05112 -3.66351 -1.27739 0.09876 -0.867581 -0.383919 -3.53523 
176 -0.71134 4.27865 46.1445 -2.82136 -3.39518 -1.01448 0.102517 -0.852439 -0.416173 -3.53549 
177 -1.0307 6.42627 44.8393 -2.55672 -3.34521 -0.959537 0.126764 -1.28883 -0.530261 -3.53496 
178 1.24816 5.2833 44.851 -2.21585 -2.80371 -0.748573 -0.0503993 -0.858285 -0.386413 -3.53386 
179 -1.10477 6.4185 47.4203 -2.29409 -3.0166 -0.772499 0.129193 -1.2694 -0.544342 -3.53529 
180 3.52475 4.1283 44.852 -2.55915 -2.47647 -0.751851 -0.292757 -0.532574 0.500742 -3.53383 
181 1.5711 3.14347 46.1516 -2.3626 -2.61783 -0.71868 -0.172128 -0.45604 0.00572444 -3.53054 
182 1.53627 3.16344 48.7364 -2.08822 -2.36113 -0.347373 -0.183347 -0.479016 -0.0349989 -3.53015 
183 1.18845 5.30075 47.4331 -1.94167 -2.50478 -0.517514 -0.0636039 -0.864493 -0.432017 -3.53412 
184 3.4799 4.1713 47.4338 -2.23961 -2.22066 -0.544089 -0.286507 -0.558661 0.456151 -3.53404 
185 -0.760748 4.27348 48.7284 -2.60128 -3.07331 -0.666252 0.0965882 -0.842709 -0.423391 -3.53517 
186 -0.811621 4.26877 51.3169 -1.98842 -2.35087 0.313295 0.0838807 -0.842221 -0.652857 -3.53805 
187 -1.17889 6.41384 50.0002 -2.05516 -2.54105 -0.330391 0.0856903 -1.27531 -0.621547 -3.53574 
188 1.12775 5.31799 50.0156 -1.56927 -2.07896 -0.0207775 -0.110064 -0.944501 -0.598066 -3.53484 
189 -1.25707 6.40546 52.5877 -1.6124 -2.48692 0.64326 0.175835 -1.31632 -0.612977 -3.53281 
190 3.43505 4.21346 50.0156 -1.7595 -1.85322 -0.0395914 -0.309425 -0.668172 0.310831 -3.5349 
191 1.50027 3.18358 51.3264 -1.43164 -1.70125 0.657692 -0.172621 -0.548778 -0.132893 -3.53273 
192 1.46587 3.20964 53.9052 0.0266841 0.953969 -0.795948 0.566297 -0.561002 0.13894 -3.37565 
193 1.06597 5.33731 52.6041 -1.24923 -1.89863 0.441412 -0.237006 -0.801295 -0.410755 -3.52779 
194 3.38747 4.26008 52.6041 -1.41017 -1.71371 0.389744 -0.390642 -0.639385 0.587423 -3.52746 
195 -0.866323 4.2769 53.8949 -0.0508366 -0.206168 -1.18043 0.0793864 -1.26166 1.02744 -3.38132 
196 1.3298 4.1174 -56.3442 5.06943 2.90555 1.6024 -1.25475 -0.273889 0.110269 -2.79034 
197 -1.33605 6.40133 55.1665 4.17997 2.7975 1.28994 0.319908 -1.52321 0.197926 -3.26107 
198 1.00488 5.36129 55.1754 5.64218 6.63189 2.70779 0.369908 -0.636446 -0.0325573 -3.15047 
199 1.98371 6.26223 -55.1334 6.93991 9.11552 2.92922 0.134179 -0.847911 -0.525682 -3.02309 
200 3.34328 4.30996 55.1754 5.53066 7.35777 2.86916 0.118687 -0.278591 0.562672 -3.15115 
201 2.87095 2.09325 -56.362 4.04254 6.0065 1.88105 -3.16454 0.252666 0.34181 -2.79939 
202 2.84551 2.1252 -53.8874 0.165065 0.76333 -3.02646 -0.982089 -0.732806 -0.162358 -3.51266 
203 3.53831 4.21674 -55.1525 6.03167 6.27392 1.75933 0.302435 -1.21949 -0.0444711 -3.1433 
204 5.07312 2.13635 -55.1525 6.04997 7.03888 2.00313 0.446059 -0.528113 0.080549 -3.14511 
205 1.29262 4.16451 -53.8815 0.861253 -0.348171 -3.67511 -0.408843 -0.573881 0.838997 -3.51412 
206 1.24176 4.17585 -51.3147 -1.28725 -1.9114 -0.378028 -0.21493 -0.880975 0.220654 -3.53903 
207 1.90264 6.26187 -52.5941 -0.917985 -1.45674 -0.572937 -0.184176 -1.16805 0.820096 -3.52792 
208 3.4607 4.22944 -52.6036 -0.749056 -0.92589 0.0952729 -0.677524 -0.496111 0.191346 -3.53019 
209 1.82403 6.27282 -50.0101 -1.64485 -2.33043 -0.270353 -0.197524 -1.2778 0.428882 -3.53673 
210 5.01221 2.17771 -52.6036 -1.34198 -0.34865 0.0544496 -0.502584 0.0191637 0.991482 -3.52952 
211 2.80522 2.14769 -51.32 -1.10383 -0.947088 -0.114348 -0.278253 -0.33363 0.262299 -3.53415 
212 2.77241 2.17446 -48.7405 -1.97345 -1.83954 -0.551065 -0.290995 -0.219007 0.334546 -3.53088 
213 3.40036 4.25787 -50.02 -1.4331 -1.65531 -0.143547 -0.409134 -0.705806 0.285281 -3.53497 
214 4.971 2.23184 -50.02 -1.84527 -1.27479 -0.116368 -0.296657 0.023708 0.834856 -3.53501 
215 1.18982 4.18024 -48.7356 -2.1827 -2.76124 -0.796721 -0.179722 -0.843101 0.27473 -3.5364 
216 1.14017 4.18597 -46.1542 -2.64235 -3.19411 -0.984164 -0.161337 -0.827881 0.39534 -3.53605 
217 1.74893 6.27833 -47.4307 -2.10493 -2.83584 -0.685417 -0.212172 -1.23647 0.539857 -3.53589 
218 3.34534 4.28723 -47.4412 -1.90154 -2.21014 -0.569428 -0.300189 -0.634304 0.333788 -3.53415 
219 1.67522 6.28987 -44.8497 -2.47513 -3.19242 -0.872096 -0.197896 -1.23986 0.599649 -3.53535 
220 4.9351 2.28424 -47.4404 -2.32543 -1.7896 -0.545534 -0.210836 0.109865 0.863044 -3.5342 
221 2.74237 2.20147 -46.1595 -2.37008 -2.27016 -0.744506 -0.229111 -0.157044 0.389945 -3.53075 
222 2.71417 2.22991 -43.5778 -2.68383 -2.59277 -0.955254 -0.211796 -0.145458 0.410823 -3.53038 
223 3.29205 4.31922 -44.8607 -2.23904 -2.57459 -0.724122 -0.258634 -0.620294 0.369596 -3.53393 
224 4.90239 2.33714 -44.8597 -2.66272 -2.14415 -0.726795 -0.175426 0.147255 0.894716 -3.53393 
225 1.09121 4.19426 -43.5725 -2.98232 -3.51372 -1.21157 -0.147418 -0.835862 0.421972 -3.53554 
226 1.04212 4.20334 -40.9915 -3.24359 -3.78887 -1.45244 -0.144409 -0.849175 0.429348 -3.5351 
227 1.60167 6.30317 -42.2688 -2.7588 -3.4984 -1.09864 -0.196588 -1.2577 0.616161 -3.53485 
228 3.23964 4.35273 -42.2798 -2.51367 -2.87084 -0.923595 -0.240819 -0.622654 0.387722 -3.53361 
229 1.52761 6.31722 -39.6891 -2.97084 -3.76558 -1.34224 -0.203165 -1.27723 0.620399 -3.53439 
230 4.87117 2.39097 -42.2788 -2.94724 -2.42629 -0.932318 -0.163894 0.159004 0.920173 -3.5336 
231 2.68648 2.25915 -40.9968 -2.94097 -2.85435 -1.18484 -0.208329 -0.143505 0.425231 -3.53007 
232 2.65886 2.28904 -38.4173 -3.15543 -3.06957 -1.42647 -0.212665 -0.143086 0.437019 -3.52982 
233 3.18742 4.38735 -39.7 -2.73205 -3.11087 -1.14693 -0.234867 -0.627919 0.39842 -3.53334 
234 4.8405 2.44582 -39.6989 -3.18502 -2.64427 -1.15587 -0.163994 0.163618 0.942165 -3.53333 
235 0.992599 4.21275 -38.4121 -3.44451 -4.03335 -1.70319 -0.149037 -0.8621 0.430963 -3.53468 
236 0.942608 4.22242 -35.8352 -3.58662 -4.24372 -1.95842 -0.158348 -0.872849 0.425899 -3.5343 
237 1.45286 6.33183 -37.1116 -3.11413 -3.98925 -1.59415 -0.213806 -1.29372 0.615656 -3.53399 
238 3.13513 4.42295 -37.1222 -2.89444 -3.2946 -1.38036 -0.237929 -0.634947 0.400754 -3.53315 
239 1.37749 6.34699 -34.5372 -3.1895 -4.15821 -1.84055 -0.224209 -1.30666 0.597007 -3.53368 
240 4.81009 2.50169 -37.1211 -3.37315 -2.80091 -1.38826 -0.173973 0.162885 0.956288 -3.53314 
241 2.63119 2.31954 -35.8401 -3.32617 -3.23872 -1.67241 -0.224183 -0.145637 0.442916 -3.52964 
242 2.60347 2.35055 -33.2657 -3.44863 -3.35959 -1.9123 -0.24265 -0.154452 0.439062 -3.52955 
243 3.0827 4.45943 -34.5472 -2.99861 -3.42067 -1.61026 -0.249316 -0.646946 0.389479 -3.53307 
244 4.77986 2.55845 -34.546 -3.50636 -2.89818 -1.61747 -0.193944 0.151848 0.957479 -3.53306 
245 0.892207 4.23236 -33.2613 -3.66923 -4.41098 -2.20667 -0.168945 -0.881609 0.410122 -3.534 
246 0.841467 4.24246 -30.6908 -3.69974 -4.53235 -2.43442 -0.177816 -0.889107 0.382623 -3.5338 
247 1.30161 6.36257 -31.9664 -3.20686 -4.27043 -2.06519 -0.231293 -1.31702 0.562169 -3.53349 
248 3.03002 4.49648 -31.9754 -3.04926 -3.49624 -1.82397 -0.267337 -0.66479 0.363454 -3.53307 
249 1.22527 6.3782 -29.399 -3.18401 -4.33556 -2.25703 -0.233998 -1.32529 0.514746 -3.53342 
250 4.74964 2.61582 -31.9741 -3.58714 -2.94541 -1.83131 -0.222326 0.128137 0.945606 -3.53306 
251 2.5756 2.38188 -30.6946 -3.52427 -3.43634 -2.13489 -0.266283 -0.170082 0.425251 -3.52954 
252 2.54744 2.41331 -28.1268 -3.56163 -3.4794 -2.3318 -0.292145 -0.190041 0.404857 -3.52957 
253 2.97692 4.53369 -29.407 -3.05881 -3.53531 -2.01322 -0.288991 -0.68595 0.327212 -3.53312 
254 4.71915 2.67345 -29.4055 -3.62592 -2.95782 -2.02116 -0.255715 0.0946226 0.92512 -3.5331 
255 0.79043 4.2525 -28.1236 -3.69278 -4.61372 -2.63206 -0.183162 -0.895665 0.346608 -3.53368 
256 0.739113 4.26227 -25.5595 -3.66356 -4.66484 -2.79612 -0.184406 -0.901218 0.306754 -3.53362 
257 1.1485 6.39351 -26.8349 -3.1385 -4.36736 -2.41283 -0.232469 -1.33143 0.460903 -3.53342 
258 2.92325 4.57066 -26.8416 -3.04144 -3.55155 -2.17467 -0.31101 -0.707285 0.286803 -3.53318 
259 1.07134 6.40815 -24.2734 -3.08362 -4.37818 -2.53496 -0.227178 -1.3356 0.406113 -3.53347 
260 4.68808 2.73105 -26.84 -3.63516 -2.95 -2.18304 -0.290447 0.056318 0.901027 -3.53316 
261 2.51886 2.44462 -25.562 -3.57175 -3.50032 -2.49912 -0.317472 -0.211234 0.381901 -3.52962 
262 2.48976 2.47565 -22.9999 -3.56458 -3.5085 -2.63679 -0.340402 -0.231407 0.359303 -3.52967 
263 2.86891 4.6071 -24.279 -3.00904 -3.55516 -2.30848 -0.330832 -0.726617 0.246821 -3.53323 
264 4.65623 2.78842 -24.2773 -3.62564 -2.9328 -2.31671 -0.323823 0.0176184 0.87692 -3.53321 
265 0.687531 4.27156 -22.998 -3.62394 -4.69521 -2.92789 -0.181739 -0.905696 0.266938 -3.5336 
266 0.635707 4.28027 -20.4387 -3.58179 -4.71237 -3.03124 -0.175711 -0.909191 0.229537 -3.5336 
267 0.993809 6.42191 -21.7142 -3.02801 -4.37723 -2.62847 -0.218659 -1.33826 0.353928 -3.53353 
268 2.81386 4.64285 -21.7187 -2.9701 -3.55282 -2.41684 -0.346981 -0.742935 0.209827 -3.53327 
269 0.915956 6.43465 -19.1568 -2.97653 -4.37066 -2.69894 -0.207489 -1.34001 0.306083 -3.5336 
270 4.62346 2.84542 -21.717 -3.6054 -2.91324 -2.42433 -0.354342 -0.018672 0.854822 -3.53325 
271 2.46011 2.50632 -20.44 -3.5476 -3.51041 -2.74727 -0.360019 -0.249381 0.338643 -3.52972 
272 2.42992 2.53657 -17.8819 -3.52593 -3.51008 -2.83417 -0.376107 -0.264779 0.320527 -3.52975 
273 2.75811 4.6778 -19.1603 -2.93003 -3.54858 -2.5029 -0.358939 -0.756089 0.176831 -3.5333 
274 4.58972 2.90197 -19.1585 -3.57995 -2.89536 -2.50924 -0.381416 -0.0512341 0.835601 -3.53328 
275 0.583667 4.28832 -17.8811 -3.54172 -4.72166 -3.11086 -0.166989 -0.911925 0.195632 -3.53361 
276 0.531443 4.29568 -15.325 -3.50604 -4.72659 -3.1713 -0.156236 -0.914162 0.165435 -3.53362 
277 0.837818 6.44632 -16.6007 -2.93141 -4.3622 -2.75145 -0.194271 -1.34134 0.263053 -3.53366 
278 2.70169 4.71192 -16.6034 -2.89192 -3.54467 -2.57012 -0.366823 -0.76641 0.147903 -3.53332 
279 0.759429 6.4569 -14.0457 -2.8932 -4.354 -2.79016 -0.179594 -1.34261 0.224571 -3.53372 
280 4.55503 2.95804 -16.6016 -3.55276 -2.88115 -2.57515 -0.405024 -0.079782 0.819407 -3.53331 
281 2.39919 2.56639 -15.3253 -3.50279 -3.50976 -2.90135 -0.388869 -0.277717 0.304981 -3.52978 
282 2.36797 2.59577 -12.7698 -3.48003 -3.51057 -2.95243 -0.398712 -0.288554 0.291734 -3.5298 
283 2.64465 4.74519 -14.0477 -2.85728 -3.5422 -2.62179 -0.371088 -0.774422 0.122628 -3.53334 
284 4.51941 3.0136 -14.0459 -3.52588 -2.87135 -2.62549 -0.425437 -0.104624 0.805992 -3.53333 
285 0.479062 4.30234 -12.7698 -3.47561 -4.72932 -3.2165 -0.144056 -0.916127 0.138654 -3.53363 
286 0.426547 4.3083 -10.2155 -3.45036 -4.73109 -3.24961 -0.130956 -0.917954 0.114755 -3.53364 
287 0.680821 6.46639 -11.4915 -2.86143 -4.34713 -2.8183 -0.163974 -1.34399 0.190005 -3.53376 
288 2.58702 4.77763 -11.493 -2.82659 -3.54161 -2.66081 -0.372309 -0.780666 0.100386 -3.53335 
289 0.60202 6.47479 -8.93795 -2.83517 -4.34203 -2.83823 -0.147799 -1.34546 0.158576 -3.53379 
290 4.48289 3.06865 -11.4911 -3.50036 -2.86601 -2.66325 -0.443043 -0.126345 0.794921 -3.53334 
291 2.33628 2.62471 -10.2152 -3.4586 -3.51297 -2.99046 -0.406102 -0.297727 0.28038 -3.52982 
292 2.30416 2.65321 -7.66126 -3.43882 -3.51707 -3.01791 -0.411476 -0.305651 0.270484 -3.52983 
293 2.52887 4.80924 -8.93889 -2.7997 -3.543 -2.68955 -0.371034 -0.785599 0.0805121 -3.53336 
294 4.44553 3.12319 -8.93701 -3.47663 -2.86484 -2.6908 -0.458235 -0.145598 0.785697 -3.53335 
295 0.37392 4.31357 -7.66173 -3.42974 -4.73255 -3.27303 -0.117324 -0.919643 0.0931049 -3.53365 
296 0.321197 4.31815 -5.10839 -3.413 -4.734 -3.28846 -0.103404 -0.921074 0.0730695 -3.53366 
297 0.523054 6.48213 -6.38479 -2.81342 -4.33881 -2.85162 -0.131292 -1.34683 0.129494 -3.53381 
298 2.47021 4.84004 -6.38531 -2.77621 -3.5463 -2.70985 -0.367696 -0.789545 0.0623852 -3.53336 
299 0.443955 6.48842 -3.83192 -2.79545 -4.33742 -2.85953 -0.11451 -1.34787 0.102023 -3.53383 
300 4.40736 3.17721 -6.38343 -3.45477 -2.86745 -2.70996 -0.471333 -0.162997 0.777831 -3.53336 
301 2.27162 2.68129 -5.10774 -3.42068 -3.52283 -3.03661 -0.415173 -0.312663 0.261634 -3.52984 
302 2.23868 2.70892 -2.55449 -3.40397 -3.53018 -3.0478 -0.417394 -0.318998 0.253478 -3.52984 
303 2.41109 4.87002 -3.83208 -2.75566 -3.55146 -2.72299 -0.362557 -0.792708 0.0454645 -3.53337 
304 4.36841 3.23071 -3.83018 -3.43468 -2.87349 -2.72204 -0.482539 -0.179057 0.770887 -3.53336 
305 0.268401 4.32206 -2.55532 -3.39951 -4.73557 -3.29699 -0.0892862 -0.922046 0.0540643 -3.53367 
306 0.364763 6.49366 -1.27923 -2.78105 -4.33779 -2.86261 -0.0973788 -1.34839 0.0755194 -3.53385 
307 2.35154 4.89918 -1.27904 -2.73781 -3.55842 -2.72977 -0.355705 -0.795208 0.0292988 -3.53337 
308 4.32872 3.28366 -1.27712 -3.41626 -2.88269 -2.72783 -0.491919 -0.194195 0.764501 -3.53336 
309 2.43653 7.09145 -0.00286817 -2.21227 -3.35699 -2.40133 -0.31837 -1.19921 -0.184503 -3.53292 
310 0.434774 8.66873 -0.00326257 -2.24483 -4.01157 -2.49451 -0.100338 -1.73423 0.0854001 -3.53361 