ITEM: TIMESTEP
0
ITEM: NUMBER OF ATOMS
37664
ITEM: BOX BOUNDS ff ff ff
-100 100
-100 100
-156.15 156.15
ITEM: ATOMS id x y z v_peratom_sxx v_peratom_syy v_peratom_szz v_peratom_sxy v_peratom_sxz v_peratom_syz c_atomPE 
1 -0.00295584 -0.00110118 -0.0026708 -5.18275 -5.16884 -9.54417 -0.00261228 0.0195911 -0.046675 -3.51524 
2 -0.00328571 -0.000930592 2.55049 -5.17849 -5.16648 -9.53774 -0.0036685 0.0217867 -0.045478 -3.51527 
3 -0.00358108 -0.000751694 5.1038 -5.17015 -5.1602 -9.52121 -0.0046811 0.0238561 -0.043799 -3.51534 
4 -0.00384013 -0.000562275 7.6574 -5.15737 -5.14963 -9.49385 -0.00562821 0.0257362 -0.0416623 -3.51547 
5 -0.00406145 -0.000360642 10.2114 -5.13947 -5.13405 -9.45418 -0.00648838 0.0273835 -0.0391052 -3.51566 
6 -0.00424378 -0.000146016 12.7661 -5.11533 -5.1123 -9.4 -0.00724275 0.028775 -0.0361883 -3.51591 
7 -0.00438572 8.09194e-05 15.3216 -5.08331 -5.08273 -9.32821 -0.00787537 0.0299052 -0.0330031 -3.51624 
8 -0.00448544 0.000317449 17.8783 -5.0411 -5.04299 -9.23472 -0.0083729 0.0307824 -0.029675 -3.51667 
9 -0.00454048 0.000558397 20.4363 -4.98557 -4.98987 -9.11447 -0.00872497 0.0314268 -0.0263603 -3.51722 
10 -0.0045475 0.000795988 22.9961 -4.91247 -4.91908 -8.96157 -0.00892555 0.0318728 -0.0232359 -3.5179 
11 -0.00450217 0.00102012 25.5581 -4.81641 -4.82514 -8.77004 -0.0089752 0.0321734 -0.0204808 -3.51875 
12 -0.00439915 0.00121906 28.1227 -4.69105 -4.70163 -8.53554 -0.00888324 0.0324011 -0.0182512 -3.51978 
13 -0.00423218 0.00138058 30.6904 -4.53063 -4.54272 -8.25843 -0.00866781 0.0326425 -0.016654 -3.52097 
14 -0.00399433 0.00149293 33.2612 -4.33367 -4.34688 -7.94747 -0.00835161 0.0329826 -0.0157306 -3.52226 
15 -0.00367834 0.00154528 35.8353 -4.10814 -4.12203 -7.62018 -0.00795439 0.0334883 -0.015468 -3.52353 
16 -0.0032769 0.00152704 38.4121 -3.87015 -3.88427 -7.29492 -0.00748539 0.0341853 -0.0158327 -3.52462 
17 -0.0027825 0.00142577 40.9914 -3.6313 -3.64518 -6.97812 -0.00693592 0.0350451 -0.0168176 -3.52551 
18 -0.00218433 0.00122347 43.5729 -3.39256 -3.40564 -6.657 -0.00626003 0.0360699 -0.018503 -3.52623 
19 -0.00146285 0.000891111 46.1568 -3.12873 -3.14009 -6.29494 -0.00529864 0.0372872 -0.0210359 -3.52697 
20 -0.000598626 0.000384091 48.7435 -2.74737 -2.75377 -5.85695 -0.00296647 0.0377311 -0.0243451 -3.52783 
21 5.95933e-07 -4.11185e-08 51.3317 -1.92317 -1.92268 -4.91869 0.000221163 -0.00194322 0.00130351 -3.53203 
22 4.01304e-07 -1.42881e-06 53.9138 -0.851886 -0.851901 -8.91774 -1.37695e-06 -2.74148e-05 -7.33889e-05 -3.48169 
23 8.71386e-07 -1.98378e-06 56.3885 1.68559 1.6856 1.87689 -1.50539e-05 2.36194e-05 -5.90661e-07 -2.55581 
24 -1.23087e-07 -1.12453e-06 -53.8876 -2.60702 -2.60703 -6.54972 -1.41942e-05 9.07106e-06 -3.71078e-05 -3.40183 
25 1.02659e-07 -1.55837e-06 -51.3239 -2.07933 -2.07977 -5.58551 -0.000554689 -0.000930976 0.00240867 -3.52874 
26 0.000301258 -0.000666544 -48.7464 -2.7114 -2.7057 -6.16979 0.00675445 0.0184111 -0.0417346 -3.52631 
27 0.000724869 -0.00154986 -46.165 -3.04053 -3.03135 -6.37312 0.0121627 0.0180405 -0.0375191 -3.52669 
28 0.00101328 -0.00217576 -43.5829 -3.32084 -3.31005 -6.63323 0.0136585 0.0190803 -0.0332583 -3.52626 
29 0.00120895 -0.00260488 -41.0017 -3.57467 -3.56248 -6.91955 0.0141277 0.0197847 -0.0299653 -3.52566 
30 0.00132477 -0.00288358 -38.4222 -3.82302 -3.80948 -7.22557 0.0140853 0.0198843 -0.0276849 -3.52483 
31 0.00136932 -0.00304227 -35.8448 -4.06757 -4.05264 -7.54785 0.0137193 0.0192953 -0.0264067 -3.52378 
32 0.00134862 -0.00310251 -33.2702 -4.29939 -4.28299 -7.8758 0.013106 0.0180312 -0.0261278 -3.52256 
33 0.00126531 -0.00308165 -30.6986 -4.50575 -4.48783 -8.19219 0.0122764 0.0162105 -0.0268132 -3.52127 
34 0.00111908 -0.00299547 -28.1302 -4.67815 -4.65878 -8.48003 0.011247 0.014072 -0.0283779 -3.52005 
35 0.000908805 -0.00285972 -25.5649 -4.81538 -4.79477 -8.72864 0.0100403 0.0119423 -0.0306718 -3.51897 
36 0.000635515 -0.00269028 -23.0024 -4.92108 -4.89958 -8.93477 0.00869752 0.0101592 -0.0334723 -3.51805 
37 0.000304514 -0.00250211 -20.4421 -5.00072 -4.97874 -9.10051 0.0072771 0.00898068 -0.0365074 -3.51731 
38 -7.42532e-05 -0.00230782 -17.8838 -5.05976 -5.03775 -9.23063 0.00584227 0.00853638 -0.0394977 -3.51671 
39 -0.000487412 -0.00211639 -15.327 -5.1029 -5.08129 -9.33077 0.00444641 0.00882974 -0.0421981 -3.51625 
40 -0.000920141 -0.00193276 -12.7714 -5.13391 -5.11304 -9.40629 0.0031222 0.00977299 -0.0444265 -3.5159 
41 -0.00135814 -0.00175814 -10.2167 -5.15565 -5.13579 -9.46181 0.00187796 0.0112321 -0.0460752 -3.51564 
42 -0.0017891 -0.00159098 -7.6627 -5.17019 -5.15156 -9.501 0.000701913 0.013064 -0.0471042 -3.51545 
43 -0.00220336 -0.00142816 -5.10912 -5.17899 -5.16177 -9.52664 -0.000427586 0.015139 -0.047523 -3.51533 
44 -0.00259391 -0.00126604 -2.55583 -5.183 -5.16734 -9.54064 -0.00152977 0.0173465 -0.0473669 -3.51526 
45 0.0930168 2.1591 1.27288 -4.05167 -5.13215 -3.83727 -0.055209 -0.431498 -0.00106418 -3.5291 
46 0.0665199 2.16024 3.82606 -4.04841 -5.13191 -3.82804 -0.0426246 -0.430958 -0.0100819 -3.52911 
47 0.0400615 2.16104 6.37947 -4.04751 -5.12979 -3.8107 -0.0298847 -0.430447 -0.0192067 -3.52913 
48 0.0136521 2.16151 8.93324 -4.049 -5.12546 -3.78437 -0.0171107 -0.429991 -0.0287382 -3.52915 
49 -0.0126982 2.16166 11.4875 -4.05289 -5.11836 -3.74763 -0.00444676 -0.429591 -0.0390143 -3.52918 
50 -0.0389789 2.16147 14.0426 -4.05909 -5.10758 -3.69841 0.00792921 -0.429231 -0.0504195 -3.52922 
51 -0.065179 2.16095 16.5985 -4.06736 -5.09178 -3.63391 0.019792 -0.428876 -0.0633801 -3.52927 
52 -0.0912871 2.16009 19.1558 -4.077 -5.06896 -3.55058 0.0308517 -0.428477 -0.0783299 -3.52933 
53 -0.117292 2.1589 21.7145 -4.08661 -5.03617 -3.4441 0.0407386 -0.427971 -0.0956178 -3.52941 
54 -0.143184 2.15739 24.2752 -4.09336 -4.98916 -3.30973 0.049003 -0.427275 -0.115306 -3.52952 
55 -0.168953 2.15558 26.8382 -4.09204 -4.92196 -3.14302 0.0551595 -0.426286 -0.136795 -3.52966 
56 -0.19459 2.15351 29.4041 -4.07386 -4.8269 -2.94154 0.0588293 -0.424861 -0.158304 -3.52986 
57 -0.220081 2.15128 31.9731 -4.02614 -4.69591 -2.70746 0.0600226 -0.422787 -0.176599 -3.53012 
58 -0.245398 2.14897 34.5454 -3.93559 -4.5246 -2.4498 0.0594748 -0.419758 -0.188149 -3.53048 
59 -0.270495 2.14661 37.1208 -3.797 -4.31838 -2.18278 0.0586423 -0.41537 -0.192706 -3.53089 
60 -0.295315 2.14413 39.6989 -3.61887 -4.09185 -1.9178 0.0589914 -0.409318 -0.195392 -3.53129 
61 -0.319825 2.14143 42.2794 -3.41321 -3.85564 -1.65502 0.0611659 -0.40183 -0.202442 -3.53165 
62 -0.344056 2.13841 44.8618 -3.18661 -3.60639 -1.38273 0.0644062 -0.3935 -0.220629 -3.53194 
63 -0.368158 2.13527 47.4463 -2.90942 -3.29394 -1.09687 0.0655204 -0.386328 -0.242028 -3.53224 
64 -0.392512 2.13371 50.032 -2.42775 -2.80043 -0.487134 0.058868 -0.409099 -0.208443 -3.53325 
65 -0.418483 2.1304 52.6263 -1.76571 -2.00547 -0.561333 0.0455101 -0.308966 -0.729898 -3.52457 
66 -0.44812 2.14653 55.1778 6.97659 7.73843 2.43092 0.0330134 -0.597321 1.77022 -3.02528 
67 0.649859 2.05055 -55.162 1.38943 0.842373 -0.678421 -0.188254 -0.0991957 1.20761 -3.26036 
68 0.633027 2.08274 -52.6122 -1.11214 -2.21877 -0.457827 -0.374521 -0.489251 -0.161409 -3.53567 
69 0.607028 2.08678 -50.0319 -2.00561 -2.5638 -0.884262 -0.163305 -0.421754 0.0768253 -3.53399 
70 0.58216 2.08801 -47.4535 -2.65129 -3.07882 -1.22868 -0.12387 -0.386874 0.149153 -3.5329 
71 0.557999 2.09135 -44.8717 -3.07421 -3.44766 -1.38781 -0.101024 -0.383698 0.194294 -3.53224 
72 0.533825 2.09554 -42.2901 -3.37362 -3.73245 -1.61602 -0.0908034 -0.389009 0.207265 -3.53181 
73 0.509391 2.10002 -39.7097 -3.61729 -3.98765 -1.86539 -0.0884302 -0.395965 0.214162 -3.53139 
74 0.484627 2.10465 -37.1312 -3.8193 -4.2247 -2.12736 -0.0920239 -0.40261 0.218233 -3.53095 
75 0.459552 2.10941 -34.5553 -3.97668 -4.43855 -2.395 -0.0999903 -0.408489 0.217227 -3.53053 
76 0.434219 2.1143 -31.9824 -4.08526 -4.61949 -2.65649 -0.110116 -0.413768 0.20852 -3.53015 
77 0.408672 2.11925 -29.4128 -4.14839 -4.76236 -2.8983 -0.119947 -0.418575 0.192155 -3.52986 
78 0.382939 2.12416 -26.8463 -4.17634 -4.86936 -3.11046 -0.127601 -0.422801 0.170741 -3.52964 
79 0.357038 2.12892 -24.2828 -4.18092 -4.9469 -3.28872 -0.13212 -0.426273 0.147371 -3.52947 
80 0.330984 2.13344 -21.7218 -4.17187 -5.00218 -3.43358 -0.133297 -0.428915 0.124356 -3.52936 
81 0.304797 2.13767 -19.1629 -4.15603 -5.04145 -3.54835 -0.131365 -0.43077 0.103018 -3.52927 
82 0.278499 2.14158 -16.6056 -4.13771 -5.06944 -3.63743 -0.126755 -0.431965 0.0839169 -3.52921 
83 0.252111 2.14513 -14.0496 -4.11946 -5.08957 -3.70525 -0.119961 -0.43265 0.0671294 -3.52917 
84 0.225656 2.14833 -11.4946 -4.10262 -5.10413 -3.75578 -0.111456 -0.43296 0.0524604 -3.52914 
85 0.199154 2.15117 -8.94042 -4.08783 -5.11468 -3.79223 -0.10166 -0.432996 0.0395856 -3.52912 
86 0.172624 2.15367 -6.38672 -4.07532 -5.12223 -3.81711 -0.0909144 -0.432821 0.0281384 -3.5291 
87 0.146081 2.15582 -3.83337 -4.06513 -5.12743 -3.8322 -0.0794759 -0.432482 0.0177605 -3.5291 
88 0.119541 2.15763 -1.28022 -4.05725 -5.13067 -3.8387 -0.0675295 -0.432024 0.00812459 -3.5291 
89 0.215773 4.32584 -0.00414111 -3.38698 -4.73749 -3.29931 -0.077893 -0.911318 0.0401399 -3.5337 
90 0.285794 6.4983 1.27201 -2.7729 -4.34158 -2.86175 -0.0808807 -1.33959 0.0546248 -3.53387 
91 2.20566 2.73654 -0.00289613 -3.38743 -3.53888 -3.05589 -0.421121 -0.314452 0.251731 -3.52984 
92 2.172 2.76316 2.55021 -3.37435 -3.55017 -3.05187 -0.418835 -0.319784 0.244515 -3.52984 
93 2.29183 4.92786 1.2726 -2.72221 -3.56847 -2.73228 -0.348081 -0.78782 0.0211766 -3.53337 
94 4.28858 3.33634 1.27478 -3.39993 -2.89591 -2.73069 -0.500866 -0.200832 0.761993 -3.53337 
95 0.162993 4.32827 2.54882 -3.38311 -4.73956 -3.29476 -0.0615826 -0.911359 0.0220961 -3.5337 
96 0.110245 4.33001 5.10194 -3.38344 -4.74185 -3.28421 -0.0450605 -0.911449 0.00385596 -3.5337 
97 0.206711 6.50132 3.82477 -2.77197 -4.34548 -2.8558 -0.0617472 -1.3403 0.0286267 -3.53387 
98 2.23161 4.95525 3.82566 -2.71317 -3.57931 -2.72575 -0.336413 -0.789845 0.00552151 -3.53337 
99 0.127669 6.50328 6.37773 -2.7759 -4.35105 -2.84534 -0.0425196 -1.34125 0.00202025 -3.53386 
100 4.24749 3.38807 3.82784 -3.38643 -2.91142 -2.72345 -0.505122 -0.21517 0.756103 -3.53337 
101 2.13802 2.78931 5.10347 -3.3634 -3.56284 -3.04105 -0.414916 -0.325249 0.2372 -3.52984 
102 2.10374 2.81498 7.65701 -3.35469 -3.57677 -3.02294 -0.409307 -0.331077 0.229497 -3.52983 
103 2.17108 4.98178 6.37893 -2.70786 -3.59162 -2.71313 -0.323137 -0.792146 -0.010719 -3.53337 
104 4.20574 3.4392 6.38111 -3.37536 -2.92966 -2.71001 -0.507338 -0.229829 0.749955 -3.53337 
105 0.0575465 4.33106 7.65532 -3.3881 -4.74424 -3.26718 -0.0284368 -0.91162 -0.0150313 -3.5337 
106 0.00491772 4.33142 10.2091 -3.39733 -4.74653 -3.24275 -0.011833 -0.911883 -0.0350551 -3.5337 
107 0.0486939 6.50419 8.93099 -2.78493 -4.35827 -2.82983 -0.0233023 -1.34249 -0.0257749 -3.53384 
108 2.11025 5.00745 8.93254 -2.70651 -3.60532 -2.69379 -0.308226 -0.794937 -0.0280294 -3.53337 
109 -0.0301869 6.50403 11.4847 -2.7995 -4.36708 -2.80834 -0.00421176 -1.34402 -0.0553944 -3.53381 
110 4.16334 3.48971 8.93471 -3.36689 -2.95063 -2.68973 -0.507349 -0.245192 0.743231 -3.53336 
111 2.06916 2.84015 10.211 -3.34836 -3.59181 -2.99654 -0.401891 -0.337509 0.22108 -3.52982 
112 2.03429 2.86481 12.7656 -3.34452 -3.6077 -2.9604 -0.392482 -0.344806 0.211575 -3.52981 
113 2.04913 5.03224 11.4866 -2.70944 -3.62028 -2.66671 -0.2916 -0.798448 -0.0469538 -3.53336 
114 4.12029 3.53958 11.4888 -3.3612 -2.97437 -2.66154 -0.504899 -0.261674 0.73556 -3.53336 
115 -0.0476218 4.33109 12.7635 -3.41146 -4.74837 -3.20954 0.00461068 -0.912225 -0.0567587 -3.53369 
116 -0.100051 4.33006 15.3187 -3.43081 -4.74913 -3.16554 0.0207241 -0.912606 -0.0807421 -3.53368 
117 -0.108944 6.50281 14.039 -2.82015 -4.37731 -2.77953 0.0146158 -1.34587 -0.0875439 -3.53378 
118 1.98776 5.05611 14.0414 -2.71703 -3.63623 -2.63039 -0.273135 -0.80294 -0.0681123 -3.53335 
119 -0.187546 6.50049 16.5941 -2.84745 -4.38853 -2.74147 0.0330192 -1.348 -0.122992 -3.53373 
120 4.07661 3.58877 14.0436 -3.35846 -3.00088 -2.62393 -0.499643 -0.279738 0.726491 -3.53335 
121 1.99915 2.88894 15.321 -3.3432 -3.62399 -2.91245 -0.38084 -0.353264 0.200545 -3.52979 
122 1.96373 2.91252 17.8774 -3.34426 -3.6399 -2.85003 -0.366684 -0.363214 0.187495 -3.52977 
123 1.92614 5.07904 16.5971 -2.72966 -3.65271 -2.58277 -0.252676 -0.808713 -0.092198 -3.53334 
124 4.0323 3.63725 16.5992 -3.3588 -3.03002 -2.57492 -0.491161 -0.299909 0.715476 -3.53334 
125 -0.152348 4.32833 17.8749 -3.45561 -4.7478 -3.10811 0.0362933 -0.912951 -0.107635 -3.53368 
126 -0.20449 4.3259 20.4323 -3.48569 -4.74263 -3.0338 0.051041 -0.913146 -0.138012 -3.53367 
127 -0.265959 6.49709 19.1502 -2.88188 -4.39993 -2.69151 0.0508109 -1.35028 -0.162518 -3.53367 
128 1.8643 5.10099 19.1538 -2.74757 -3.66887 -2.52123 -0.230073 -0.816101 -0.119935 -3.53332 
129 -0.344146 6.4926 21.7077 -2.92344 -4.40988 -2.6261 0.0677763 -1.35248 -0.206771 -3.53361 
130 3.98736 3.68498 19.156 -3.3621 -3.06134 -2.51201 -0.479003 -0.322764 0.701863 -3.53333 
131 1.92806 2.93552 20.4352 -3.34712 -3.65408 -2.76987 -0.349745 -0.374998 0.171902 -3.52974 
132 1.89214 2.95793 22.9947 -3.35039 -3.66424 -2.66814 -0.329851 -0.388884 0.153332 -3.5297 
133 1.80225 5.12193 21.712 -2.77057 -3.68321 -2.44257 -0.20524 -0.825453 -0.151958 -3.53329 
134 3.94181 3.73191 21.7141 -3.36785 -3.09383 -2.43222 -0.462777 -0.348871 0.684942 -3.5333 
135 -0.256453 4.32278 22.9914 -3.52006 -4.73084 -2.93839 0.0646001 -0.913037 -0.172206 -3.53367 
136 -0.308218 4.31901 25.5525 -3.55607 -4.70795 -2.81701 0.0764857 -0.91245 -0.209935 -3.53368 
137 -0.422068 6.48704 24.2667 -2.97121 -4.41549 -2.54066 0.0836636 -1.35424 -0.255973 -3.53355 
138 1.74003 5.14186 24.272 -2.7976 -3.69323 -2.34312 -0.178275 -0.837052 -0.188563 -3.53326 
139 -0.499691 6.4805 26.8278 -3.02238 -4.41185 -2.42961 0.0981407 -1.35508 -0.309388 -3.53349 
140 3.89568 3.77802 24.274 -3.37463 -3.12549 -2.33221 -0.442315 -0.37861 0.664083 -3.53327 
141 1.856 2.97974 25.5563 -3.35117 -3.66661 -2.54084 -0.307093 -0.404857 0.13169 -3.52965 
142 1.81969 3.00099 28.1204 -3.34399 -3.65518 -2.3845 -0.282078 -0.422212 0.107712 -3.5296 
143 1.67766 5.16081 26.8342 -2.82589 -3.69489 -2.21915 -0.149672 -0.850918 -0.229222 -3.53321 
144 3.849 3.8233 26.8361 -3.37946 -3.15262 -2.20847 -0.417949 -0.411785 0.639069 -3.53322 
145 -0.35977 4.31466 28.1161 -3.58808 -4.66721 -2.66485 0.0860922 -0.91122 -0.249708 -3.53371 
146 -0.411096 4.30987 30.6826 -3.60582 -4.59912 -2.47873 0.0927934 -0.90916 -0.28815 -3.5338 
147 -0.576985 6.47314 29.3915 -3.07087 -4.39105 -2.28696 0.110702 -1.35454 -0.364539 -3.53346 
148 1.61522 5.17888 29.3989 -2.84969 -3.682 -2.06752 -0.120627 -0.866384 -0.271813 -3.53316 
149 -0.653929 6.46521 31.9582 -3.10551 -4.34128 -2.10811 0.120567 -1.35226 -0.416469 -3.53349 
150 3.80191 3.8678 29.4007 -3.37669 -3.1689 -2.05784 -0.390861 -0.446929 0.610707 -3.53316 
151 1.78331 3.02178 30.6874 -3.31965 -3.62112 -2.19752 -0.256255 -0.438973 0.083685 -3.52955 
152 1.747 3.04227 33.2577 -3.26497 -3.55322 -1.98201 -0.23204 -0.45161 0.0638347 -3.52954 
153 1.5528 5.1963 31.9667 -2.85862 -3.64546 -1.88674 -0.0933255 -0.881365 -0.311753 -3.5331 
154 3.75459 3.91165 31.9683 -3.35651 -3.16423 -1.87841 -0.363371 -0.480451 0.581688 -3.5331 
155 -0.462175 4.30486 33.2524 -3.59357 -4.49238 -2.25992 0.0962542 -0.905892 -0.32006 -3.53396 
156 -0.512955 4.29984 35.8256 -3.53359 -4.33811 -2.01715 0.0969357 -0.900564 -0.340903 -3.53423 
157 -0.730493 6.45711 34.5283 -3.10861 -4.2471 -1.89343 0.126799 -1.34776 -0.458128 -3.53362 
158 1.49058 5.21341 34.5378 -2.83657 -3.57316 -1.67858 -0.0708049 -0.891691 -0.342071 -3.53307 
159 -0.806597 6.44921 37.1021 -3.05882 -4.09387 -1.65307 0.128988 -1.33972 -0.48388 -3.53389 
160 3.70736 3.9551 34.5393 -3.30388 -3.12461 -1.67132 -0.338716 -0.50654 0.556983 -3.53307 
161 1.71097 3.06267 35.8313 -3.16609 -3.4414 -1.74516 -0.212174 -0.456319 0.0526693 -3.5296 
162 1.67536 3.08308 38.408 -3.01753 -3.28386 -1.49773 -0.19785 -0.452795 0.0497649 -3.52976 
163 1.42883 5.2306 37.1122 -2.76461 -3.45235 -1.44993 -0.0558195 -0.892158 -0.356874 -3.53313 
164 3.66061 3.99843 37.1136 -3.20078 -3.03571 -1.44317 -0.319759 -0.519847 0.54174 -3.53312 
165 -0.563342 4.29487 38.402 -3.41702 -4.13864 -1.76556 0.0964028 -0.892032 -0.352242 -3.53458 
166 -0.613238 4.28978 40.981 -3.25141 -3.90997 -1.51744 0.0967922 -0.879814 -0.363143 -3.53493 
167 -0.882109 6.4416 39.6791 -2.94449 -3.8812 -1.40682 0.128298 -1.32641 -0.49688 -3.53426 
168 1.36777 5.24806 39.6897 -2.63224 -3.27833 -1.21261 -0.0488184 -0.88157 -0.359492 -3.5333 
169 -0.956918 6.43399 42.2584 -2.77397 -3.6291 -1.17226 0.12736 -1.30785 -0.509986 -3.53462 
170 3.61458 4.04178 39.6909 -3.03704 -2.89251 -1.20632 -0.306965 -0.521673 0.53454 -3.53329 
171 1.64021 3.10341 40.9872 -2.82771 -3.08945 -1.2474 -0.187455 -0.446395 0.0470466 -3.53 
172 1.60541 3.12353 43.5685 -2.60663 -2.86621 -0.991817 -0.178527 -0.443767 0.0360987 -3.53027 
173 1.30746 5.26564 42.2695 -2.4459 -3.06024 -0.976716 -0.0470428 -0.866519 -0.364432 -3.53355 
174 3.56924 4.08505 42.2706 -2.82012 -2.70346 -0.972513 -0.298204 -0.521921 0.524485 -3.53354 
175 -0.662625 4.28436 43.562 -3.04793 -3.66238 -1.2721 0.099202 -0.864819 -0.38212 -3.53524 
176 -0.711671 4.27858 46.1444 -2.81844 -3.3936 -1.00941 0.10284 -0.849166 -0.414736 -3.5355 
177 -1.03109 6.42616 44.8391 -2.55422 -3.34442 -0.955824 0.1275 -1.28644 -0.528572 -3.53496 
178 1.24777 5.28317 44.8508 -2.21278 -2.8028 -0.743851 -0.0488131 -0.855566 -0.383297 -3.53387 
179 -1.105 6.41843 47.4202 -2.29197 -3.01547 -0.768993 0.129625 -1.26667 -0.543011 -3.53529 
180 3.52436 4.12819 44.8518 -2.55542 -2.47592 -0.747608 -0.290897 -0.529569 0.502946 -3.53384 
181 1.57077 3.14339 46.1515 -2.35893 -2.61648 -0.713566 -0.170759 -0.452538 0.00847861 -3.53054 
182 1.53616 3.16341 48.7363 -2.08493 -2.35859 -0.342748 -0.182237 -0.474763 -0.0316258 -3.53016 
183 1.18823 5.30067 47.433 -1.93931 -2.50342 -0.51261 -0.062585 -0.861425 -0.428774 -3.53412 
184 3.47969 4.17124 47.4337 -2.23703 -2.21947 -0.53969 -0.285299 -0.555255 0.458464 -3.53404 
185 -0.760862 4.27346 48.7284 -2.59819 -3.07071 -0.66173 0.096788 -0.83818 -0.422284 -3.53518 
186 -0.811621 4.26877 51.3169 -1.98833 -2.35082 0.314422 0.0838989 -0.842561 -0.652941 -3.53805 
187 -1.17889 6.41384 50.0002 -2.05344 -2.54088 -0.328552 0.0841103 -1.27304 -0.621135 -3.53574 
188 1.12775 5.31799 50.0156 -1.56805 -2.0773 -0.0177475 -0.109459 -0.942571 -0.596086 -3.53484 
189 -1.25707 6.40546 52.5877 -1.61251 -2.48689 0.643217 0.175853 -1.31635 -0.612998 -3.53281 
190 3.43505 4.21346 50.0156 -1.75818 -1.85187 -0.0368972 -0.308733 -0.666159 0.312399 -3.5349 
191 1.50027 3.18358 51.3264 -1.4316 -1.70114 0.659051 -0.172618 -0.549133 -0.132891 -3.53272 
192 1.46587 3.20964 53.9052 0.026718 0.954006 -0.795812 0.566309 -0.560978 0.138982 -3.37565 
193 1.06597 5.33731 52.6041 -1.24914 -1.89854 0.441546 -0.23698 -0.801316 -0.41084 -3.52779 
194 3.38747 4.26008 52.6041 -1.41011 -1.71359 0.389878 -0.390657 -0.639437 0.58734 -3.52746 
195 -0.866323 4.2769 53.8949 -0.0508511 -0.206107 -1.18039 0.0793732 -1.26166 1.02745 -3.38132 
196 1.3298 4.1174 -56.3442 5.06942 2.90559 1.60242 -1.25473 -0.273892 0.110263 -2.79034 
197 -1.33605 6.40133 55.1665 4.18007 2.79745 1.28998 0.319922 -1.52319 0.19787 -3.26107 
198 1.00488 5.36129 55.1754 5.64207 6.63186 2.70774 0.369858 -0.636459 -0.0326245 -3.15047 
199 1.98371 6.26223 -55.1334 6.93987 9.11552 2.92912 0.134189 -0.847905 -0.525662 -3.02309 
200 3.34328 4.30996 55.1754 5.53064 7.35766 2.86911 0.118706 -0.278629 0.562631 -3.15115 
201 2.87095 2.09325 -56.362 4.04253 6.0065 1.881 -3.16453 0.252642 0.341788 -2.79939 
202 2.84551 2.1252 -53.8874 0.164981 0.763268 -3.02656 -0.982111 -0.73282 -0.162366 -3.51266 
203 3.53831 4.21674 -55.1525 6.03165 6.27391 1.75934 0.302435 -1.21951 -0.0444741 -3.1433 
204 5.07312 2.13635 -55.1525 6.04997 7.03886 2.00314 0.446064 -0.52812 0.0805331 -3.14511 
205 1.29262 4.16451 -53.8815 0.86123 -0.348286 -3.67516 -0.408881 -0.573885 0.839008 -3.51412 
206 1.24176 4.17585 -51.3147 -1.28733 -1.91155 -0.378981 -0.214942 -0.881722 0.220307 -3.53904 
207 1.90264 6.26187 -52.5941 -0.9182 -1.45694 -0.573253 -0.184223 -1.16811 0.820001 -3.52792 
208 3.4607 4.22944 -52.6036 -0.749131 -0.925944 0.0953323 -0.677551 -0.496206 0.191282 -3.53019 
209 1.82403 6.27282 -50.0101 -1.64367 -2.33218 -0.271497 -0.195239 -1.27292 0.431783 -3.53675 
210 5.01221 2.17771 -52.6036 -1.34206 -0.348648 0.0545136 -0.502597 0.0190778 0.991448 -3.52953 
211 2.80522 2.14769 -51.32 -1.10379 -0.947162 -0.116678 -0.278303 -0.334323 0.262361 -3.53415 
212 2.77265 2.17448 -48.7406 -1.9786 -1.84154 -0.558243 -0.291842 -0.205651 0.340776 -3.53087 
213 3.40036 4.25787 -50.02 -1.43543 -1.65746 -0.148615 -0.40989 -0.699935 0.288658 -3.53496 
214 4.971 2.23184 -50.02 -1.84829 -1.27605 -0.120805 -0.296876 0.0294353 0.837085 -3.535 
215 1.19009 4.18031 -48.7356 -2.1888 -2.76336 -0.802018 -0.180592 -0.833276 0.279237 -3.53641 
216 1.14092 4.18616 -46.1544 -2.6503 -3.19518 -0.992216 -0.162413 -0.820914 0.398799 -3.53606 
217 1.74945 6.27852 -47.4308 -2.11143 -2.83574 -0.690876 -0.213372 -1.2306 0.54424 -3.5359 
218 3.34581 4.28735 -47.4413 -1.90574 -2.2093 -0.577627 -0.300894 -0.624799 0.33961 -3.53415 
219 1.67609 6.29017 -44.8499 -2.48297 -3.19239 -0.878871 -0.199789 -1.23495 0.603231 -3.53536 
220 4.93555 2.2843 -47.4405 -2.32977 -1.78876 -0.552388 -0.2111 0.119789 0.866285 -3.5342 
221 2.7431 2.20159 -46.1597 -2.37774 -2.2694 -0.752665 -0.229899 -0.147082 0.394515 -3.53075 
222 2.71524 2.2301 -43.5781 -2.69244 -2.59055 -0.963825 -0.212803 -0.137523 0.414667 -3.53038 
223 3.29289 4.31944 -44.8609 -2.24635 -2.57268 -0.731951 -0.260024 -0.612915 0.374582 -3.53393 
224 4.90322 2.33726 -44.8598 -2.67051 -2.14224 -0.733261 -0.176053 0.155268 0.89742 -3.53393 
225 1.09229 4.19453 -43.5727 -2.99045 -3.5142 -1.2202 -0.148575 -0.830076 0.425063 -3.53554 
226 1.04341 4.20368 -40.9918 -3.25129 -3.78871 -1.4609 -0.14546 -0.844416 0.432293 -3.5351 
227 1.60278 6.30357 -42.269 -2.76681 -3.49779 -1.10584 -0.198792 -1.25363 0.619342 -3.53485 
228 3.24075 4.35304 -42.2801 -2.52166 -2.86793 -0.931836 -0.242622 -0.616784 0.392026 -3.53361 
229 1.52886 6.31769 -39.6894 -2.97842 -3.76432 -1.34931 -0.205485 -1.27395 0.62337 -3.5344 
230 4.87226 2.39116 -42.279 -2.956 -2.42311 -0.939217 -0.1649 0.16541 0.922446 -3.5336 
231 2.68776 2.25941 -40.9971 -2.94921 -2.85129 -1.19341 -0.209485 -0.137058 0.428669 -3.53007 
232 2.66024 2.28937 -38.4177 -3.16272 -3.06604 -1.43477 -0.213964 -0.137789 0.440179 -3.52982 
233 3.18869 4.38772 -39.7003 -2.73981 -3.10725 -1.15539 -0.236966 -0.623259 0.402226 -3.53334 
234 4.84175 2.44608 -39.6992 -3.1936 -2.64015 -1.16308 -0.165367 0.168794 0.944177 -3.53333 
235 0.993993 4.21315 -38.4126 -3.4513 -4.03255 -1.71117 -0.149948 -0.858296 0.433853 -3.53468 
236 0.944017 4.22288 -35.8358 -3.59221 -4.24235 -1.9658 -0.159243 -0.869858 0.428844 -3.5343 
237 1.45418 6.33236 -37.1121 -3.12082 -3.98744 -1.6008 -0.216221 -1.29118 0.618572 -3.53399 
238 3.13647 4.4234 -37.1226 -2.90146 -3.29056 -1.38883 -0.240319 -0.631215 0.404243 -3.53315 
239 1.37878 6.34758 -34.5378 -3.19487 -4.15599 -1.84669 -0.226828 -1.30471 0.600025 -3.53368 
240 4.81141 2.50201 -37.1214 -3.38102 -2.79621 -1.39559 -0.175733 0.167203 0.958195 -3.53314 
241 2.6326 2.31993 -35.8406 -3.33234 -3.2349 -1.68036 -0.225676 -0.141137 0.445915 -3.52964 
242 2.60484 2.351 -33.2664 -3.45375 -3.35553 -1.92001 -0.244446 -0.150379 0.442028 -3.52955 
243 3.08403 4.45994 -34.5477 -3.00459 -3.4164 -1.61867 -0.252064 -0.643833 0.392837 -3.53306 
244 4.78118 2.55883 -34.5464 -3.51329 -2.89316 -1.62484 -0.196136 0.155672 0.95941 -3.53305 
245 0.893564 4.23288 -33.262 -3.67348 -4.40915 -2.21347 -0.170077 -0.879213 0.413252 -3.534 
246 0.842724 4.24304 -30.6916 -3.7026 -4.53022 -2.44073 -0.179509 -0.887025 0.386045 -3.5338 
247 1.3028 6.36321 -31.967 -3.21055 -4.26798 -2.07081 -0.234302 -1.31544 0.565433 -3.5335 
248 3.03128 4.49705 -31.976 -3.05401 -3.49185 -1.83234 -0.270553 -0.661977 0.366859 -3.53307 
249 1.22632 6.37891 -29.3998 -3.18579 -4.33311 -2.26217 -0.2376 -1.3238 0.518353 -3.53343 
250 4.75092 2.61625 -31.9746 -3.5931 -2.94024 -1.8387 -0.225013 0.131793 0.94766 -3.53305 
251 2.57689 2.3824 -30.6954 -3.52856 -3.43201 -2.14256 -0.26854 -0.166088 0.428312 -3.52954 
252 2.54863 2.41389 -28.1277 -3.56536 -3.47481 -2.33965 -0.295037 -0.185833 0.408119 -3.52957 
253 2.97807 4.53431 -29.4077 -3.06224 -3.5309 -2.0216 -0.292792 -0.683131 0.33082 -3.53311 
254 4.72034 2.67393 -29.4061 -3.63101 -2.95265 -2.02861 -0.258964 0.0983762 0.927366 -3.53309 
255 0.791556 4.25315 -28.1246 -3.69429 -4.6115 -2.638 -0.185727 -0.893586 0.350375 -3.53368 
256 0.740094 4.26298 -25.5606 -3.66384 -4.66274 -2.80176 -0.188067 -0.898854 0.310861 -3.53363 
257 1.14939 6.39427 -26.8357 -3.13827 -4.36514 -2.41752 -0.236824 -1.32979 0.464897 -3.53343 
258 2.92427 4.57133 -26.8425 -3.04354 -3.54723 -2.18311 -0.315475 -0.7042 0.290732 -3.53317 
259 1.07204 6.40896 -24.2744 -3.08144 -4.37642 -2.53924 -0.232373 -1.3336 0.410486 -3.53348 
260 4.68917 2.73159 -26.8407 -3.6395 -2.94494 -2.19061 -0.294309 0.0603575 0.903504 -3.53315 
261 2.51994 2.44525 -25.563 -3.57516 -3.49552 -2.50732 -0.321134 -0.206593 0.385438 -3.52962 
262 2.49074 2.47634 -23.0009 -3.5678 -3.50362 -2.64545 -0.344893 -0.226201 0.363149 -3.52967 
263 2.86978 4.60782 -24.2799 -3.00987 -3.55106 -2.31701 -0.335977 -0.723073 0.251142 -3.53323 
264 4.6572 2.789 -24.2781 -3.62936 -2.92801 -2.32443 -0.32831 0.0220547 0.879636 -3.5332 
265 0.688364 4.27234 -22.9992 -3.62317 -4.69343 -2.93327 -0.186587 -0.902823 0.271332 -3.53361 
266 0.636396 4.28111 -20.44 -3.58009 -4.71105 -3.03635 -0.18169 -0.905654 0.234137 -3.53361 
267 0.994336 6.42276 -21.7153 -3.02398 -4.37611 -2.63238 -0.224685 -1.33577 0.358631 -3.53354 
268 2.81458 4.64361 -21.7197 -2.96973 -3.54907 -2.42544 -0.352757 -0.738821 0.214564 -3.53327 
269 0.916314 6.43554 -19.1579 -2.97077 -4.37023 -2.70252 -0.214235 -1.33689 0.311041 -3.53361 
270 4.62431 2.84604 -21.7178 -3.60857 -2.90885 -2.43219 -0.359415 -0.0137986 0.857758 -3.53324 
271 2.46098 2.50705 -20.4411 -3.55067 -3.50561 -2.75636 -0.36531 -0.243555 0.342793 -3.52971 
272 2.43068 2.53734 -17.8832 -3.52875 -3.50549 -2.84357 -0.382087 -0.258336 0.324947 -3.52975 
273 2.75868 4.67859 -19.1614 -2.92853 -3.54525 -2.51151 -0.365234 -0.751351 0.181968 -3.5333 
274 4.59047 2.90262 -19.1594 -3.58259 -2.89148 -2.51722 -0.386988 -0.0459356 0.838712 -3.53327 
275 0.584221 4.2892 -17.8825 -3.53914 -4.72084 -3.11568 -0.173917 -0.907612 0.200345 -3.53362 
276 0.531872 4.29658 -15.3264 -3.50254 -4.72622 -3.17578 -0.163826 -0.908956 0.170162 -3.53364 
277 0.838023 6.44723 -16.6019 -2.92403 -4.36244 -2.75472 -0.201522 -1.33746 0.268168 -3.53368 
278 2.70214 4.71272 -16.6046 -2.88934 -3.54181 -2.57862 -0.373465 -0.761023 0.153397 -3.53332 
279 0.759509 6.45781 -14.047 -2.88438 -4.35477 -2.79311 -0.187026 -1.33778 0.229743 -3.53373 
280 4.55567 2.9587 -16.6025 -3.55481 -2.87784 -2.58313 -0.410953 -0.0740964 0.822629 -3.5333 
281 2.39986 2.56717 -15.3266 -3.50516 -3.5055 -2.91087 -0.395356 -0.270683 0.30962 -3.52977 
282 2.36854 2.59655 -12.7712 -3.48169 -3.50672 -2.96179 -0.405463 -0.280945 0.296544 -3.5298 
283 2.64498 4.74599 -14.0489 -2.85365 -3.53983 -2.63001 -0.377845 -0.768358 0.128433 -3.53334 
284 4.51994 3.01426 -14.0468 -3.52724 -2.86865 -2.63335 -0.431529 -0.0985882 0.809258 -3.53332 
285 0.479381 4.30324 -12.7714 -3.47112 -4.72926 -3.22054 -0.151937 -0.909884 0.143311 -3.53365 
286 0.426779 4.30918 -10.2171 -3.44495 -4.73118 -3.25308 -0.138694 -0.91052 0.119282 -3.53366 
287 0.68081 6.46727 -11.4929 -2.85159 -4.34825 -2.82089 -0.171171 -1.33801 0.195144 -3.53378 
288 2.58726 4.7784 -11.4942 -2.82202 -3.53977 -2.66852 -0.37888 -0.773878 0.106476 -3.53335 
289 0.601964 6.47563 -8.93935 -2.82514 -4.34335 -2.84039 -0.154297 -1.33822 0.163633 -3.53381 
290 4.48334 3.0693 -11.4921 -3.50095 -2.86392 -2.67079 -0.449051 -0.119973 0.798178 -3.53333 
291 2.33676 2.62546 -10.2166 -3.45935 -3.50964 -2.99936 -0.412815 -0.289535 0.285341 -3.52981 
292 2.30456 2.65392 -7.66271 -3.43858 -3.51436 -3.02599 -0.417794 -0.29685 0.275613 -3.52982 
293 2.52904 4.80996 -8.94017 -2.79448 -3.54175 -2.69649 -0.377058 -0.77804 0.0868921 -3.53336 
294 4.44591 3.1238 -8.93804 -3.4765 -2.86339 -2.69782 -0.463863 -0.13888 0.788926 -3.53334 
295 0.374091 4.3144 -7.66343 -3.42375 -4.73267 -3.27576 -0.124445 -0.910931 0.0974953 -3.53367 
296 0.321345 4.31891 -5.11013 -3.40719 -4.7341 -3.29032 -0.109448 -0.911166 0.0773822 -3.53368 
297 0.523006 6.4829 -6.38622 -2.80443 -4.34023 -2.85329 -0.13666 -1.33845 0.134476 -3.53384 
298 2.47035 4.84069 -6.38663 -2.7709 -3.54572 -2.71574 -0.372791 -0.781223 0.0690841 -3.53336 
299 0.443971 6.4891 -3.83337 -2.78902 -4.33891 -2.86072 -0.118452 -1.33872 0.106992 -3.53386 
300 4.40768 3.17776 -6.38448 -3.45409 -2.86665 -2.71624 -0.476261 -0.155912 0.781055 -3.53335 
301 2.27196 2.68192 -5.10922 -3.41962 -3.52087 -3.04352 -0.420704 -0.303243 0.266988 -3.52983 
302 2.23898 2.70946 -2.55599 -3.40254 -3.52908 -3.05323 -0.421767 -0.309021 0.259128 -3.52984 
303 2.41123 4.87057 -3.83341 -2.75106 -3.55157 -2.72759 -0.366396 -0.783739 0.0525137 -3.53337 
304 4.36869 3.23117 -3.83125 -3.43383 -2.87335 -2.72735 -0.486473 -0.171608 0.774169 -3.53336 
305 0.268564 4.32272 -2.55708 -3.39499 -4.73568 -3.29793 -0.0938855 -0.911275 0.0584214 -3.53369 
306 0.36489 6.49423 -1.28066 -2.77856 -4.33938 -2.86341 -0.099818 -1.33908 0.0805645 -3.53387 
307 2.35171 4.89963 -1.28038 -2.73485 -3.55919 -2.73294 -0.358107 -0.785859 0.0366948 -3.53337 
308 4.32898 3.28404 -1.27821 -3.41576 -2.88318 -2.73202 -0.494649 -0.186441 0.767918 -3.53336 
309 2.4367 7.09181 -0.00398723 -2.21145 -3.35889 -2.40295 -0.319104 -1.19117 -0.176651 -3.53293 
310 0.434984 8.66919 -0.00434589 -2.24731 -4.01454 -2.49617 -0.101257 -1.72725 0.0903153 -3.53362 
311 0.329518 8.67386 2.54801 -2.24459 -4.0183 -2.4931 -0.0802048 -1.72842 0.0572224 -3.53362 