ITEM: TIMESTEP
212
ITEM: NUMBER OF ATOMS
37664
ITEM: BOX BOUNDS ff ff ff
-100 100
-100 100
-156.15 156.15
ITEM: ATOMS id x y z v_peratom_sxx v_peratom_syy v_peratom_szz v_peratom_sxy v_peratom_sxz v_peratom_syz c_atomPE 
1 -0.00266118 -0.00121295 -6.7806e-05 -5.17934 -5.17 -9.54477 -6.02524e-05 -0.00716107 -0.0381412 -3.51523 
2 -0.00280375 -0.00102599 2.55305 -5.17671 -5.16815 -9.54011 -0.000884776 -0.00515561 -0.0375344 -3.51525 
3 -0.00292517 -0.000831523 5.1063 -5.16998 -5.16234 -9.52537 -0.00168878 -0.00296565 -0.0365794 -3.51532 
4 -0.00302362 -0.000629636 7.65981 -5.15874 -5.15217 -9.49972 -0.00246367 -0.000623676 -0.0352835 -3.51544 
5 -0.00309738 -0.000421055 10.2138 -5.14225 -5.13689 -9.46165 -0.00319579 0.00182357 -0.0336601 -3.51562 
6 -0.00314481 -0.000207237 12.7683 -5.11937 -5.11536 -9.4089 -0.00386753 0.00431305 -0.0317338 -3.51586 
7 -0.00316439 9.56811e-06 15.3237 -5.08848 -5.08592 -9.33834 -0.00445975 0.00676904 -0.0295463 -3.51619 
8 -0.00315481 0.000226228 17.8802 -5.04728 -5.04624 -9.24589 -0.00495452 0.00911197 -0.0271617 -3.51661 
9 -0.00311504 0.000438601 20.4381 -4.99264 -4.99315 -9.12648 -0.0053377 0.0112698 -0.02467 -3.51716 
10 -0.00304429 0.000641401 22.9977 -4.92036 -4.92238 -8.97424 -0.00560078 0.0131888 -0.0221852 -3.51784 
11 -0.00294193 0.000828116 25.5595 -4.82503 -4.82846 -8.78318 -0.00574215 0.0148412 -0.019839 -3.51869 
12 -0.00280729 0.000991093 28.124 -4.70029 -4.70497 -8.54892 -0.00576772 0.0162269 -0.0177682 -3.51972 
13 -0.00263953 0.00112185 30.6914 -4.54033 -4.54606 -8.27181 -0.00569027 0.0173686 -0.0160942 -3.52091 
14 -0.00243763 0.00121153 33.2621 -4.34363 -4.35017 -7.96059 -0.0055263 0.0183014 -0.0149031 -3.5222 
15 -0.00220032 0.00125126 35.836 -4.11812 -4.12521 -7.63281 -0.00529113 0.0190655 -0.0142369 -3.52347 
16 -0.0019259 0.00123211 38.4127 -3.87993 -3.88728 -7.3069 -0.00499416 0.0196988 -0.0140997 -3.52457 
17 -0.00161172 0.00114429 40.9918 -3.6407 -3.64804 -6.98936 -0.00463369 0.0202357 -0.0144809 -3.52547 
18 -0.00125176 0.000974923 43.5732 -3.40147 -3.40846 -6.66748 -0.00418311 0.0207601 -0.0154078 -3.52619 
19 -0.000832911 0.000704246 46.157 -3.1371 -3.14323 -6.30441 -0.00354088 0.0213955 -0.0169494 -3.52694 
20 -0.000341367 0.000301813 48.7436 -2.75398 -2.75743 -5.86456 -0.00200376 0.0215806 -0.0190516 -3.52781 
21 5.95933e-07 -4.11185e-08 51.3317 -1.92344 -1.92317 -4.92106 0.00015274 -0.00112259 0.00100516 -3.53203 
22 4.01304e-07 -1.42881e-06 53.9138 -0.85172 -0.85173 -8.91773 6.69458e-07 -1.41829e-05 -7.21905e-05 -3.48169 
23 8.71386e-07 -1.98378e-06 56.3885 1.68565 1.68565 1.87711 -6.60564e-06 1.47861e-05 -1.91455e-06 -2.55581 
24 -1.23087e-07 -1.12453e-06 -53.8876 -2.60734 -2.60734 -6.54982 -1.47014e-05 1.20646e-05 -3.03134e-05 -3.40183 
25 1.02659e-07 -1.55837e-06 -51.3239 -2.07889 -2.07884 -5.57873 -0.000377061 0.000726799 0.00179285 -3.52873 
26 -0.000179934 -0.000511705 -48.7462 -2.6921 -2.69199 -6.14599 0.0050563 -0.0114109 -0.0319531 -3.5264 
27 -0.000395139 -0.00121982 -46.1646 -3.01827 -3.01776 -6.34589 0.00903431 -0.00986545 -0.0294697 -3.52678 
28 -0.000535115 -0.00174657 -43.5821 -3.29906 -3.2978 -6.6058 0.0103183 -0.00817154 -0.0273874 -3.52635 
29 -0.000619695 -0.00213617 -41.0007 -3.55369 -3.55142 -6.89348 0.010907 -0.00705468 -0.0259016 -3.52575 
30 -0.000671061 -0.00241656 -38.4209 -3.80316 -3.79973 -7.20153 0.0111122 -0.00650184 -0.0249465 -3.52492 
31 -0.000705894 -0.00260533 -35.8433 -4.04898 -4.04429 -7.52618 0.0110418 -0.00649313 -0.02449 -3.52386 
32 -0.000737818 -0.00271562 -33.2684 -4.28199 -4.27602 -7.85654 0.0107473 -0.00699959 -0.0245419 -3.52263 
33 -0.000778639 -0.00275912 -30.6967 -4.48931 -4.48208 -8.17514 0.0102643 -0.00794183 -0.0251012 -3.52133 
34 -0.000838132 -0.00274715 -28.1281 -4.66243 -4.65402 -8.46487 0.00962569 -0.00917966 -0.0261296 -3.52011 
35 -0.000923224 -0.00269077 -25.5627 -4.80023 -4.79079 -8.71503 0.00886508 -0.0105289 -0.0275446 -3.51902 
36 -0.00103726 -0.00260039 -23 -4.90648 -4.89622 -8.92248 0.00801737 -0.0117934 -0.0292241 -3.51809 
37 -0.00117979 -0.00248519 -20.4397 -4.98677 -4.97592 -9.08942 0.0071154 -0.0128038 -0.0310264 -3.51734 
38 -0.00134704 -0.00235262 -17.8813 -5.04665 -5.03542 -9.22075 0.00618653 -0.0134432 -0.0328132 -3.51674 
39 -0.00153298 -0.00220827 -15.3245 -5.09084 -5.07943 -9.32216 0.00525109 -0.0136542 -0.0344654 -3.51628 
40 -0.00173039 -0.00205589 -12.7689 -5.12306 -5.11166 -9.39903 0.00432268 -0.0134305 -0.035891 -3.51592 
41 -0.00193196 -0.00189767 -10.2141 -5.14613 -5.1349 -9.45597 0.00340927 -0.0128018 -0.0370267 -3.51565 
42 -0.00213096 -0.00173452 -7.66006 -5.16211 -5.15117 -9.49667 0.00251447 -0.0118149 -0.0378337 -3.51546 
43 -0.00232169 -0.00156644 -5.10648 -5.1724 -5.16189 -9.52387 0.0016388 -0.0105193 -0.0382921 -3.51533 
44 -0.0024996 -0.00139285 -2.5532 -5.17797 -5.16799 -9.53952 0.000781029 -0.0089573 -0.0383947 -3.51526 
45 0.0935091 2.15897 1.27545 -4.04568 -5.13445 -3.83835 -0.0521268 -0.442247 -0.00121638 -3.5291 
46 0.0671817 2.16014 3.82858 -4.04376 -5.13413 -3.83042 -0.0395754 -0.44172 -0.0104814 -3.52911 
47 0.0408791 2.16097 6.38191 -4.04403 -5.13189 -3.81432 -0.0269077 -0.44106 -0.0198944 -3.52912 
48 0.0146135 2.16147 8.93559 -4.04655 -5.12739 -3.78915 -0.014229 -0.440289 -0.029743 -3.52914 
49 -0.0116031 2.16162 11.4898 -4.05137 -5.12006 -3.75347 -0.00166441 -0.439434 -0.0403461 -3.52917 
50 -0.0377589 2.16144 14.0447 -4.05849 -5.10901 -3.70517 0.0106227 -0.43852 -0.0520647 -3.52921 
51 -0.0638431 2.16092 16.6005 -4.06769 -5.09292 -3.64149 0.0224115 -0.437565 -0.0652982 -3.52925 
52 -0.0898454 2.16005 19.1576 -4.07835 -5.0698 -3.55885 0.0334058 -0.436567 -0.080454 -3.52932 
53 -0.115757 2.15883 21.7162 -4.08905 -5.03676 -3.45296 0.0432229 -0.435504 -0.097857 -3.5294 
54 -0.141573 2.15729 24.2767 -4.09697 -4.98955 -3.31904 0.0513972 -0.434327 -0.117552 -3.52951 
55 -0.167288 2.15545 26.8395 -4.09685 -4.92224 -3.15264 0.0574308 -0.43296 -0.138935 -3.52965 
56 -0.192899 2.15335 29.4052 -4.07984 -4.82715 -2.9513 0.0609382 -0.431282 -0.160228 -3.52984 
57 -0.2184 2.1511 31.974 -4.03319 -4.69617 -2.71717 0.0619317 -0.429104 -0.178212 -3.53011 
58 -0.24377 2.14877 34.5462 -3.94346 -4.52491 -2.45928 0.0611575 -0.426132 -0.189371 -3.53046 
59 -0.26897 2.1464 37.1215 -3.80536 -4.31876 -2.19189 0.0600887 -0.421969 -0.193463 -3.53087 
60 -0.29395 2.14392 39.6995 -3.62731 -4.09236 -1.92645 0.0602068 -0.416296 -0.195605 -3.53128 
61 -0.318684 2.14123 42.2797 -3.42123 -3.85641 -1.66322 0.0621577 -0.409316 -0.201998 -3.53164 
62 -0.34321 2.13824 44.862 -3.19369 -3.60769 -1.39063 0.0651545 -0.401663 -0.21938 -3.53193 
63 -0.367696 2.13517 47.4464 -2.91508 -3.29611 -1.10521 0.0659356 -0.395768 -0.239846 -3.53223 
64 -0.392512 2.13371 50.032 -2.43251 -2.80083 -0.492843 0.061905 -0.413899 -0.206168 -3.53324 
65 -0.418483 2.1304 52.6263 -1.76565 -2.00563 -0.561452 0.0455465 -0.308992 -0.729806 -3.52457 
66 -0.44812 2.14653 55.1778 6.97647 7.73839 2.43099 0.0329845 -0.597332 1.77028 -3.02528 
67 0.649859 2.05055 -55.162 1.38935 0.842274 -0.678688 -0.188262 -0.0991997 1.20756 -3.26036 
68 0.633027 2.08274 -52.6122 -1.1119 -2.21866 -0.457735 -0.374485 -0.489289 -0.161367 -3.53566 
69 0.607028 2.08678 -50.0319 -2.00345 -2.55566 -0.873322 -0.169034 -0.428057 0.0783751 -3.53398 
70 0.581401 2.08817 -47.4533 -2.6359 -3.07251 -1.20842 -0.124765 -0.40019 0.150489 -3.5329 
71 0.556677 2.09162 -44.8712 -3.05659 -3.44261 -1.3676 -0.102998 -0.395067 0.194506 -3.53225 
72 0.532125 2.09587 -42.2893 -3.35483 -3.72861 -1.59619 -0.0933676 -0.399453 0.20626 -3.53182 
73 0.507446 2.10037 -39.7086 -3.59769 -3.98488 -1.84644 -0.0912528 -0.405722 0.21218 -3.5314 
74 0.482544 2.10498 -37.1299 -3.79909 -4.223 -2.10964 -0.0948768 -0.41175 0.215571 -3.53097 
75 0.457419 2.1097 -34.5538 -3.95595 -4.43789 -2.37871 -0.10267 -0.41706 0.214162 -3.53055 
76 0.432108 2.11452 -31.9807 -4.06411 -4.61977 -2.64169 -0.112411 -0.421834 0.205306 -3.53018 
77 0.406643 2.1194 -29.4109 -4.12701 -4.76347 -2.88494 -0.121644 -0.426248 0.189034 -3.52988 
78 0.381042 2.12423 -26.8443 -4.15504 -4.87112 -3.09845 -0.128528 -0.430252 0.167939 -3.52966 
79 0.355314 2.12891 -24.2806 -4.1601 -4.94913 -3.27797 -0.132189 -0.433713 0.145069 -3.52949 
80 0.329466 2.13337 -21.7195 -4.15192 -5.00471 -3.42404 -0.132527 -0.436546 0.122659 -3.52937 
81 0.303506 2.13754 -19.1605 -4.13728 -5.0441 -3.53998 -0.129869 -0.438748 0.101938 -3.52928 
82 0.277446 2.14139 -16.6031 -4.12039 -5.07211 -3.63021 -0.1247 -0.440376 0.0833827 -3.52922 
83 0.251302 2.14492 -14.0471 -4.1037 -5.09216 -3.69917 -0.117517 -0.441517 0.0670118 -3.52917 
84 0.22509 2.14811 -11.4921 -4.0885 -5.10663 -3.75082 -0.108766 -0.442262 0.052608 -3.52914 
85 0.198824 2.15096 -8.9378 -4.07539 -5.1171 -3.78841 -0.0988172 -0.442692 0.0398553 -3.52912 
86 0.17252 2.15347 -6.38409 -4.06456 -5.1246 -3.81444 -0.0879679 -0.442869 0.0284135 -3.5291 
87 0.14619 2.15564 -3.83074 -4.05604 -5.12977 -3.83074 -0.0764537 -0.442837 0.0179541 -3.5291 
88 0.119849 2.15747 -1.27761 -4.04976 -5.133 -3.8385 -0.0644586 -0.442624 0.00817195 -3.52909 
89 0.216312 4.32567 -0.00171327 -3.38086 -4.73879 -3.29971 -0.0739953 -0.920026 0.036868 -3.53368 
90 0.286545 6.49815 1.27419 -2.76817 -4.34118 -2.86209 -0.0768503 -1.34654 0.0501824 -3.53386 
91 2.20618 2.73652 -0.000909607 -3.3818 -3.54165 -3.05293 -0.417749 -0.323 0.247834 -3.52985 
92 2.17268 2.76317 2.55216 -3.36993 -3.55237 -3.05007 -0.415883 -0.328374 0.240413 -3.52984 
93 2.29256 4.92785 1.27449 -2.71835 -3.56985 -2.72958 -0.34501 -0.795174 0.0153127 -3.53337 
94 4.28928 3.33644 1.27627 -3.39488 -2.89695 -2.72782 -0.498106 -0.207122 0.759791 -3.53337 
95 0.163688 4.32814 2.5512 -3.3779 -4.74059 -3.29611 -0.0579904 -0.920082 0.0186782 -3.53369 
96 0.111081 4.32992 5.10425 -3.37892 -4.74258 -3.28647 -0.0417887 -0.920029 0.000288729 -3.53369 
97 0.207587 6.50123 3.82689 -2.76755 -4.34477 -2.85679 -0.058184 -1.34711 0.0241081 -3.53385 
98 2.23248 4.95529 3.82751 -2.70991 -3.58023 -2.72423 -0.333884 -0.797137 -0.00048885 -3.53337 
99 0.12866 6.50324 6.37977 -2.77168 -4.35003 -2.84695 -0.0393846 -1.34779 -0.00255243 -3.53384 
100 4.24833 3.3882 3.8293 -3.38232 -2.91197 -2.72158 -0.502861 -0.221474 0.753751 -3.53337 
101 2.13885 2.78936 5.10537 -3.36004 -3.56447 -3.04041 -0.412418 -0.333774 0.232907 -3.52984 
102 2.10471 2.81506 7.65884 -3.35227 -3.57785 -3.02339 -0.407266 -0.339427 0.225035 -3.52984 
103 2.17207 4.98187 6.38072 -2.70507 -3.59211 -2.71272 -0.321122 -0.799257 -0.0168299 -3.53337 
104 4.20672 3.43936 6.38252 -3.37211 -2.92974 -2.70912 -0.505571 -0.236068 0.747454 -3.53337 
105 0.058514 4.33101 7.65756 -3.38414 -4.74465 -3.27028 -0.0254762 -0.919904 -0.0187412 -3.53369 
106 0.00600891 4.33141 10.2113 -3.3939 -4.7466 -3.24663 -0.00915477 -0.91975 -0.0388891 -3.53368 
107 0.0497947 6.5042 8.93296 -2.78093 -4.35695 -2.83201 -0.0205473 -1.34866 -0.0303739 -3.53383 
108 2.11136 5.00758 8.93426 -2.70415 -3.6054 -2.69442 -0.306676 -0.80176 -0.0341905 -3.53337 
109 -0.0289781 6.50408 11.4866 -2.79584 -4.36545 -2.81109 -0.00179177 -1.34979 -0.0599884 -3.5338 
110 4.16444 3.4899 8.93608 -3.36445 -2.95026 -2.68976 -0.506047 -0.251291 0.740588 -3.53336 
111 2.07026 2.84025 10.2127 -3.34679 -3.59235 -2.99801 -0.40028 -0.34558 0.21648 -3.52983 
112 2.03551 2.86493 12.7672 -3.34379 -3.6077 -2.96276 -0.391258 -0.352518 0.206872 -3.52981 
113 2.05036 5.03239 11.4883 -2.70753 -3.61995 -2.66828 -0.290459 -0.804904 -0.0531177 -3.53336 
114 4.1215 3.53978 11.4901 -3.35955 -2.97355 -2.66241 -0.50402 -0.26757 0.732783 -3.53336 
115 -0.046412 4.3311 12.7656 -3.4086 -4.74808 -3.21412 0.00704407 -0.919601 -0.0606871 -3.53368 
116 -0.0987272 4.33009 15.3206 -3.42865 -4.74849 -3.17076 0.022947 -0.919468 -0.0847244 -3.53367 
117 -0.107629 6.50288 14.0408 -2.817 -4.37537 -2.78282 0.0167323 -1.35123 -0.0921001 -3.53377 
118 1.98909 5.05629 14.043 -2.71566 -3.6355 -2.6328 -0.272354 -0.808988 -0.074239 -3.53335 
119 -0.186126 6.50059 16.5958 -2.845 -4.38631 -2.74529 0.0348456 -1.35298 -0.127477 -3.53372 
120 4.07793 3.58898 14.0448 -3.35765 -2.99962 -2.62555 -0.499143 -0.285387 0.723591 -3.53335 
121 2.00047 2.88907 15.3225 -3.34334 -3.62346 -2.91559 -0.379958 -0.360566 0.195774 -3.5298 
122 1.96516 2.91264 17.8789 -3.34533 -3.63885 -2.85382 -0.366108 -0.370089 0.182691 -3.52977 
123 1.92757 5.07922 16.5985 -2.72895 -3.65157 -2.58592 -0.252222 -0.814346 -0.0982559 -3.53334 
124 4.03371 3.63746 16.6003 -3.35889 -3.02831 -2.57718 -0.491003 -0.305291 0.712464 -3.53334 
125 -0.150916 4.32836 17.8766 -3.4543 -4.7468 -3.11392 0.0383272 -0.919318 -0.111622 -3.53367 
126 -0.202957 4.32592 20.434 -3.4854 -4.74133 -3.04014 0.0528895 -0.919067 -0.141947 -3.53366 
127 -0.26444 6.49719 19.1518 -2.88029 -4.39744 -2.69584 0.0523429 -1.35493 -0.166899 -3.53367 
128 1.86582 5.10117 19.1552 -2.74766 -3.66732 -2.52502 -0.229932 -0.821345 -0.125898 -3.53332 
129 -0.342537 6.4927 21.7091 -2.92286 -4.40718 -2.63092 0.0689959 -1.35687 -0.211012 -3.53361 
130 3.98886 3.68518 19.157 -3.36318 -3.0592 -2.51481 -0.479164 -0.327883 0.698755 -3.53333 
131 1.92957 2.93562 20.4366 -3.34921 -3.65253 -2.77417 -0.349456 -0.381458 0.167107 -3.52974 
132 1.89372 2.958 22.9959 -3.35357 -3.66225 -2.67283 -0.329846 -0.394966 0.148591 -3.52971 
133 1.80386 5.12211 21.7133 -2.77158 -3.68128 -2.4469 -0.205416 -0.830357 -0.157803 -3.53329 
134 3.94338 3.73209 21.7151 -3.36998 -3.09129 -2.43546 -0.463246 -0.353748 0.681758 -3.5333 
135 -0.254833 4.32279 22.9929 -3.52092 -4.72929 -2.94518 0.0662494 -0.918584 -0.176029 -3.53366 
136 -0.30653 4.31899 25.5538 -3.55818 -4.70626 -2.82415 0.0779085 -0.91771 -0.213583 -3.53367 
137 -0.420385 6.48714 24.268 -2.97174 -4.41267 -2.54591 0.0845451 -1.35843 -0.260039 -3.53354 
138 1.7417 5.14202 24.2731 -2.79963 -3.69098 -2.3479 -0.17878 -0.841685 -0.194266 -3.53326 
139 -0.497955 6.48058 26.8289 -3.02408 -4.40903 -2.43518 0.0986582 -1.35915 -0.313247 -3.53349 
140 3.8973 3.77817 24.2749 -3.37788 -3.12259 -2.33577 -0.443092 -0.383286 0.660855 -3.53327 
141 1.85764 2.97978 25.5574 -3.35549 -3.66425 -2.5458 -0.307376 -0.410621 0.127055 -3.52966 
142 1.82136 3.001 28.1213 -3.34946 -3.6526 -2.38961 -0.282654 -0.427738 0.103238 -3.5296 
143 1.67937 5.16095 26.8351 -2.82901 -3.69243 -2.22428 -0.150516 -0.855367 -0.234759 -3.53321 
144 3.85065 3.82341 26.8368 -3.38386 -3.14947 -2.21226 -0.419035 -0.416319 0.63584 -3.53322 
145 -0.358038 4.31461 28.1172 -3.59149 -4.66548 -2.67222 0.087256 -0.916295 -0.253121 -3.53371 
146 -0.409354 4.30981 30.6836 -3.6105 -4.59747 -2.48618 0.0936696 -0.914172 -0.291273 -3.53379 
147 -0.575227 6.47319 29.3924 -3.07377 -4.38836 -2.29273 0.110839 -1.35858 -0.36816 -3.53346 
148 1.61694 5.17899 29.3998 -2.85391 -3.67948 -2.07287 -0.121808 -0.870753 -0.277161 -3.53316 
149 -0.652186 6.46525 31.9589 -3.10954 -4.33885 -2.11391 0.120325 -1.35638 -0.419815 -3.53349 
150 3.80356 3.86788 29.4014 -3.38221 -3.16565 -2.06176 -0.392248 -0.451395 0.60753 -3.53316 
151 1.78498 3.02175 30.6882 -3.32618 -3.61848 -2.20267 -0.257115 -0.444359 0.0794258 -3.52955 
152 1.74863 3.04222 33.2584 -3.27239 -3.55068 -1.9871 -0.23316 -0.456964 0.059838 -3.52954 
153 1.5545 5.19638 31.9674 -2.86387 -3.64304 -1.8922 -0.0948228 -0.885772 -0.316888 -3.5331 
154 3.75621 3.9117 31.9689 -3.36304 -3.16108 -1.88237 -0.365036 -0.484934 0.578623 -3.53309 
155 -0.460464 4.30478 33.2532 -3.59938 -4.49091 -2.26728 0.0968285 -0.910982 -0.322839 -3.53396 
156 -0.511323 4.29974 35.8263 -3.54025 -4.33687 -2.02427 0.0972179 -0.905887 -0.343278 -3.53423 
157 -0.728809 6.45713 34.5289 -3.11361 -4.24502 -1.89908 0.126206 -1.35208 -0.461149 -3.53362 
158 1.49222 5.21346 34.5383 -2.84269 -3.57103 -1.68402 -0.0725737 -0.896254 -0.346967 -3.53307 
159 -0.805026 6.44921 37.1026 -3.06447 -4.09219 -1.65843 0.128109 -1.34438 -0.4865 -3.53388 
160 3.70891 3.95511 34.5397 -3.31121 -3.12175 -1.67521 -0.340616 -0.511124 0.554096 -3.53306 
161 1.71251 3.06259 35.8319 -3.17411 -3.43914 -1.75012 -0.213506 -0.461744 0.0489766 -3.5296 
162 1.67677 3.08299 38.4084 -3.02574 -3.28202 -1.50252 -0.199326 -0.458378 0.0464131 -3.52976 
163 1.43035 5.23062 37.1127 -2.77129 -3.45064 -1.45528 -0.0577887 -0.896974 -0.361492 -3.53313 
164 3.66204 3.99841 37.1139 -3.20855 -3.03333 -1.44695 -0.321824 -0.524598 0.539096 -3.53312 
165 -0.561846 4.29476 38.4026 -3.42411 -4.13767 -1.77235 0.0964362 -0.897734 -0.354134 -3.53457 
166 -0.611943 4.28966 40.9814 -3.25838 -3.90937 -1.52388 0.0966592 -0.886009 -0.364448 -3.53492 
167 -0.880711 6.44158 39.6795 -2.95032 -3.87995 -1.41183 0.127247 -1.33153 -0.498991 -3.53425 
168 1.36912 5.24806 39.69 -2.63905 -3.27718 -1.21782 -0.0508848 -0.886697 -0.363783 -3.5333 
169 -0.955758 6.43395 42.2587 -2.77945 -3.62839 -1.17695 0.126309 -1.31347 -0.51145 -3.53461 
170 3.61585 4.04174 39.6912 -3.04481 -2.89077 -1.20995 -0.309095 -0.526629 0.532187 -3.53329 
171 1.64142 3.10332 40.9875 -2.83566 -3.08821 -1.25207 -0.188992 -0.452189 0.0440755 -3.52999 
172 1.60637 3.12344 43.5687 -2.61381 -2.86578 -0.996416 -0.180006 -0.449793 0.0335625 -3.53027 
173 1.30858 5.26563 42.2697 -2.45235 -3.05981 -0.981797 -0.0490638 -0.87196 -0.368332 -3.53355 
174 3.57028 4.08501 42.2708 -2.82739 -2.70252 -0.975971 -0.300268 -0.527099 0.522439 -3.53353 
175 -0.661599 4.28425 43.5622 -3.0542 -3.66235 -1.27828 0.0990195 -0.871568 -0.382675 -3.53523 
176 -0.710989 4.2785 46.1446 -2.8235 -3.39459 -1.01553 0.102708 -0.856595 -0.414313 -3.53549 
177 -1.03023 6.42612 44.8393 -2.55887 -3.34449 -0.960367 0.126674 -1.29253 -0.529193 -3.53496 
178 1.24859 5.28316 44.851 -2.21837 -2.80331 -0.74884 -0.0505796 -0.861272 -0.386731 -3.53386 
179 -1.10451 6.41841 47.4203 -2.29547 -3.01685 -0.77383 0.129187 -1.27326 -0.542512 -3.53528 
180 3.52513 4.12816 44.852 -2.56154 -2.47595 -0.750873 -0.292686 -0.534977 0.50119 -3.53383 
181 1.57141 3.14333 46.1516 -2.36472 -2.61732 -0.718139 -0.171966 -0.45886 0.00636237 -3.53053 
182 1.53638 3.16339 48.7364 -2.08934 -2.361 -0.346922 -0.183516 -0.48199 -0.0339976 -3.53014 
183 1.18869 5.30067 47.4331 -1.94328 -2.50494 -0.517827 -0.0636755 -0.867433 -0.431914 -3.53411 
184 3.48011 4.17122 47.4338 -2.24085 -2.22065 -0.542901 -0.286362 -0.561036 0.456949 -3.53403 
185 -0.760625 4.27342 48.7284 -2.60258 -3.07392 -0.66802 0.096604 -0.848036 -0.420419 -3.53516 
186 -0.811621 4.26877 51.3169 -1.98827 -2.35114 0.312597 0.0839171 -0.841858 -0.653003 -3.53805 
187 -1.17889 6.41384 50.0002 -2.057 -2.54091 -0.332044 0.0871357 -1.2783 -0.620187 -3.53573 
188 1.12775 5.31799 50.0156 -1.56916 -2.07901 -0.0207114 -0.110462 -0.946337 -0.598031 -3.53483 
189 -1.25707 6.40546 52.5877 -1.61251 -2.48695 0.643147 0.175773 -1.31622 -0.613113 -3.53281 
190 3.43505 4.21346 50.0156 -1.75913 -1.85294 -0.038577 -0.309455 -0.669573 0.311104 -3.5349 
191 1.50027 3.18358 51.3264 -1.43164 -1.70135 0.658217 -0.172612 -0.548389 -0.133033 -3.53273 
192 1.46587 3.20964 53.9052 0.0267473 0.954042 -0.795711 0.566327 -0.560936 0.139042 -3.37565 
193 1.06597 5.33731 52.6041 -1.24909 -1.8985 0.441631 -0.236951 -0.801351 -0.410877 -3.52779 
194 3.38747 4.26008 52.6041 -1.41011 -1.71347 0.389964 -0.390699 -0.639491 0.58727 -3.52746 
195 -0.866323 4.2769 53.8949 -0.0509049 -0.206045 -1.18046 0.0793547 -1.26165 1.02745 -3.38131 
196 1.3298 4.1174 -56.3442 5.0694 2.90565 1.60244 -1.25469 -0.273897 0.110255 -2.79034 
197 -1.33605 6.40133 55.1665 4.1802 2.79737 1.29003 0.319944 -1.52317 0.197789 -3.26107 
198 1.00488 5.36129 55.1754 5.64191 6.6318 2.70766 0.369783 -0.636478 -0.0327252 -3.15047 
199 1.98371 6.26223 -55.1334 6.93981 9.11552 2.92901 0.134203 -0.847896 -0.52563 -3.02309 
200 3.34328 4.30996 55.1754 5.53062 7.3575 2.86903 0.118734 -0.278686 0.562571 -3.15115 
201 2.87095 2.09325 -56.362 4.04253 6.00649 1.88092 -3.16452 0.252605 0.341754 -2.79939 
202 2.84551 2.1252 -53.8874 0.164901 0.763219 -3.02656 -0.982144 -0.732829 -0.162377 -3.51266 
203 3.53831 4.21674 -55.1525 6.03164 6.27389 1.7594 0.302438 -1.21954 -0.0444777 -3.1433 
204 5.07312 2.13635 -55.1525 6.04996 7.03884 2.0032 0.446074 -0.528129 0.0805129 -3.14511 
205 1.29262 4.16451 -53.8815 0.861249 -0.348414 -3.67507 -0.408938 -0.573876 0.83901 -3.51412 
206 1.24176 4.17585 -51.3147 -1.28684 -1.91098 -0.375249 -0.214933 -0.880763 0.220405 -3.53903 
207 1.90264 6.26187 -52.5941 -0.918018 -1.45692 -0.573291 -0.184207 -1.16807 0.820043 -3.52792 
208 3.4607 4.22944 -52.6036 -0.748832 -0.92582 0.0956149 -0.677528 -0.496108 0.191353 -3.53019 
209 1.82403 6.27282 -50.0101 -1.64333 -2.32761 -0.265742 -0.198948 -1.27951 0.430556 -3.53673 
210 5.01221 2.17771 -52.6036 -1.34183 -0.348476 0.0547895 -0.502564 0.0191546 0.991489 -3.52952 
211 2.80522 2.14769 -51.32 -1.10345 -0.946636 -0.112095 -0.278091 -0.333256 0.262052 -3.53414 
212 2.77232 2.17455 -48.7404 -1.96824 -1.83738 -0.544665 -0.290829 -0.221651 0.336763 -3.53088 
213 3.40036 4.25787 -50.02 -1.43103 -1.65373 -0.139416 -0.408622 -0.707284 0.285796 -3.53497 
214 4.971 2.23184 -50.02 -1.84299 -1.27358 -0.11281 -0.296402 0.0224187 0.835811 -3.53501 
215 1.18972 4.18033 -48.7355 -2.17796 -2.7577 -0.789262 -0.179473 -0.846388 0.279113 -3.5364 
216 1.13991 4.18624 -46.1541 -2.63642 -3.19303 -0.976824 -0.162212 -0.830488 0.398229 -3.53604 
217 1.74875 6.27847 -47.4306 -2.10074 -2.83448 -0.678091 -0.212143 -1.2383 0.542617 -3.53589 
218 3.34517 4.28738 -47.4411 -1.89777 -2.20939 -0.562504 -0.300164 -0.636559 0.335078 -3.53414 
219 1.67493 6.29013 -44.8495 -2.47013 -3.19244 -0.865817 -0.198171 -1.2418 0.601411 -3.53534 
220 4.93496 2.28439 -47.4403 -2.32085 -1.78934 -0.539767 -0.21117 0.108157 0.864783 -3.53419 
221 2.74215 2.20174 -46.1594 -2.36308 -2.27034 -0.737585 -0.230002 -0.159391 0.391603 -3.53074 
222 2.71385 2.23032 -43.5776 -2.67495 -2.59436 -0.948363 -0.213206 -0.148236 0.411842 -3.53037 
223 3.29177 4.31949 -44.8605 -2.23364 -2.57534 -0.717348 -0.258943 -0.622569 0.37042 -3.53392 
224 4.90216 2.33742 -44.8595 -2.65599 -2.14517 -0.721211 -0.176368 0.145533 0.896113 -3.53393 
225 1.09084 4.19467 -43.5722 -2.97485 -3.51366 -1.20455 -0.148661 -0.838686 0.423728 -3.53553 
226 1.04165 4.20383 -40.991 -3.23424 -3.78932 -1.4456 -0.145627 -0.852304 0.43014 -3.53509 
227 1.60128 6.30353 -42.2685 -2.75251 -3.49915 -1.09274 -0.196806 -1.25985 0.616983 -3.53484 
228 3.23927 4.3531 -42.2795 -2.50692 -2.87264 -0.916834 -0.241335 -0.625262 0.38792 -3.53361 
229 1.52714 6.31764 -39.6887 -2.96299 -3.76671 -1.33648 -0.20311 -1.27954 0.620471 -3.53438 
230 4.87087 2.39136 -42.2786 -2.93894 -2.42824 -0.92684 -0.165175 0.156993 0.921223 -3.5336 
231 2.68608 2.25966 -40.9964 -2.93033 -2.8569 -1.17806 -0.209976 -0.146836 0.425591 -3.53007 
232 2.65838 2.28961 -38.4168 -3.14312 -3.07285 -1.41987 -0.214361 -0.14685 0.436819 -3.52981 
233 3.18698 4.38778 -39.6996 -2.72387 -3.1135 -1.14023 -0.235456 -0.630808 0.398036 -3.53334 
234 4.84014 2.44629 -39.6986 -3.1753 -2.64691 -1.15057 -0.165443 0.161326 0.942884 -3.53333 
235 0.99204 4.21329 -38.4116 -3.43313 -4.03408 -1.6965 -0.150017 -0.865491 0.431039 -3.53468 
236 0.941975 4.22299 -35.8345 -3.5732 -4.24464 -1.95197 -0.159025 -0.8764 0.425543 -3.5343 
237 1.45233 6.33227 -37.1111 -3.10459 -3.99058 -1.58848 -0.213367 -1.29613 0.615226 -3.53398 
238 3.13464 4.42343 -37.1217 -2.88479 -3.29791 -1.37379 -0.238493 -0.637967 0.399929 -3.53315 
239 1.37691 6.34744 -34.5366 -3.17821 -4.15969 -1.83505 -0.223382 -1.30912 0.596338 -3.53367 
240 4.80968 2.50221 -37.1207 -3.36213 -2.80403 -1.38321 -0.17546 0.16046 0.956749 -3.53315 
241 2.63065 2.32014 -35.8395 -3.31237 -3.24252 -1.66609 -0.225819 -0.149595 0.442321 -3.52964 
242 2.60289 2.35117 -33.2651 -3.43365 -3.36369 -1.90643 -0.244186 -0.15832 0.438278 -3.52955 
243 3.08217 4.45994 -34.5466 -2.98753 -3.4245 -1.60393 -0.249809 -0.649914 0.388405 -3.53306 
244 4.77942 2.559 -34.5455 -3.49422 -2.90158 -1.61276 -0.195384 0.149494 0.957791 -3.53306 
245 0.89152 4.23293 -33.2606 -3.65391 -4.41208 -2.2006 -0.169376 -0.885196 0.409624 -3.534 
246 0.840753 4.24303 -30.69 -3.68283 -4.53366 -2.42888 -0.178143 -0.892613 0.382248 -3.5338 
247 1.30099 6.36302 -31.9656 -3.19389 -4.27204 -2.05996 -0.230173 -1.31948 0.561514 -3.53349 
248 3.02947 4.497 -31.9748 -3.03691 -3.50043 -1.818 -0.267759 -0.667529 0.362342 -3.53307 
249 1.22464 6.37865 -29.3982 -3.16956 -4.33736 -2.25221 -0.232755 -1.32773 0.514314 -3.53342 
250 4.7492 2.61639 -31.9736 -3.57413 -2.94891 -1.82701 -0.223676 0.12606 0.945898 -3.53306 
251 2.57502 2.38252 -30.694 -3.50853 -3.44052 -2.12967 -0.26773 -0.173588 0.424503 -3.52954 
252 2.54688 2.41394 -28.1261 -3.54564 -3.48346 -2.32739 -0.293555 -0.19298 0.404349 -3.52958 
253 2.97638 4.53421 -29.4063 -3.04546 -3.53966 -2.00774 -0.289382 -0.688324 0.326259 -3.53312 
254 4.71872 2.67403 -29.405 -3.61239 -2.96126 -2.01736 -0.256971 0.0929892 0.925523 -3.53311 
255 0.789719 4.25307 -28.1228 -3.67477 -4.61528 -2.6272 -0.183577 -0.899007 0.346566 -3.53368 
256 0.738439 4.26282 -25.5586 -3.64497 -4.6667 -2.79205 -0.185113 -0.904349 0.307175 -3.53363 
257 1.14788 6.39394 -26.834 -3.12283 -4.36938 -2.40854 -0.231321 -1.33383 0.460836 -3.53342 
258 2.92274 4.57118 -26.841 -3.02742 -3.5559 -2.16979 -0.31144 -0.709224 0.286163 -3.53318 
259 1.07075 6.40859 -24.2725 -3.06698 -4.38045 -2.5313 -0.226345 -1.33795 0.40647 -3.53347 
260 4.6877 2.73163 -26.8395 -3.62149 -2.95327 -2.17979 -0.291641 0.0552269 0.901648 -3.53316 
261 2.51835 2.44525 -25.5613 -3.55604 -3.50413 -2.49565 -0.318923 -0.213497 0.381788 -3.52963 
262 2.48934 2.47628 -22.9992 -3.54956 -3.51197 -2.63434 -0.341981 -0.232993 0.359661 -3.52968 
263 2.86845 4.60763 -24.2783 -2.9947 -3.55936 -2.30431 -0.331387 -0.728114 0.246581 -3.53323 
264 4.65591 2.789 -24.2768 -3.61216 -2.93583 -2.31406 -0.325012 0.0170858 0.87782 -3.53321 
265 0.686924 4.27212 -22.9971 -3.60527 -4.69738 -2.92468 -0.182913 -0.90859 0.267854 -3.53361 
266 0.63519 4.28083 -20.4378 -3.56336 -4.71483 -3.02887 -0.177462 -0.911817 0.230896 -3.53361 
267 0.99328 6.42235 -21.7133 -3.01057 -4.37976 -2.62549 -0.218315 -1.34051 0.354686 -3.53353 
268 2.81348 4.64338 -21.718 -2.95569 -3.55676 -2.41345 -0.347744 -0.744027 0.210002 -3.53327 
269 0.915499 6.43511 -19.1558 -2.9584 -4.37337 -2.69665 -0.207713 -1.34204 0.307154 -3.5336 
270 4.62323 2.84601 -21.7164 -3.59238 -2.91602 -2.42229 -0.35559 -0.0187049 0.85601 -3.53326 
271 2.4598 2.50694 -20.4393 -3.53355 -3.51351 -2.74585 -0.361802 -0.250365 0.339468 -3.52972 
272 2.42973 2.5372 -17.8813 -3.51293 -3.51279 -2.83373 -0.378138 -0.265277 0.321745 -3.52976 
273 2.75782 4.67834 -19.1596 -2.91572 -3.55218 -2.50031 -0.359961 -0.756823 0.177376 -3.5333 
274 4.5896 2.90257 -19.158 -3.56755 -2.89788 -2.50782 -0.382778 -0.0508743 0.837031 -3.53329 
275 0.583259 4.28889 -17.8802 -3.52368 -4.72433 -3.10929 -0.169332 -0.91421 0.197309 -3.53361 
276 0.531155 4.29626 -15.3241 -3.48839 -4.72933 -3.17043 -0.159071 -0.915971 0.167266 -3.53363 
277 0.837448 6.44679 -16.5998 -2.91269 -4.36501 -2.74981 -0.195014 -1.34297 0.264301 -3.53366 
278 2.70151 4.71247 -16.6027 -2.87778 -3.5479 -2.56829 -0.368099 -0.766807 0.148737 -3.53333 
279 0.759167 6.45738 -14.0448 -2.87408 -4.35677 -2.78908 -0.180663 -1.3436 0.22585 -3.53372 
280 4.55502 2.95864 -16.601 -3.54101 -2.88344 -2.57431 -0.406515 -0.0791487 0.820992 -3.53331 
281 2.39914 2.56702 -15.3247 -3.49075 -3.5121 -2.90179 -0.391136 -0.277839 0.306482 -3.52978 
282 2.36805 2.59639 -12.7692 -3.46877 -3.51261 -2.95355 -0.401126 -0.288364 0.293401 -3.5298 
283 2.64458 4.74575 -14.047 -2.84334 -3.54507 -2.62062 -0.372529 -0.774462 0.123664 -3.53334 
284 4.51952 3.0142 -14.0453 -3.51474 -2.87344 -2.62516 -0.427015 -0.103814 0.807631 -3.53333 
285 0.478904 4.30292 -12.769 -3.45832 -4.73199 -3.21618 -0.147156 -0.917272 0.140473 -3.53364 
286 0.426532 4.30887 -10.2147 -3.43354 -4.73356 -3.24967 -0.133985 -0.918242 0.116431 -3.53365 
287 0.68069 6.46687 -11.4907 -2.8424 -4.34972 -2.81766 -0.165051 -1.34411 0.191186 -3.53376 
288 2.58709 4.77818 -11.4923 -2.81295 -3.54421 -2.66014 -0.37373 -0.780288 0.101562 -3.53335 
289 0.602053 6.47527 -8.9371 -2.81709 -4.34435 -2.83791 -0.148493 -1.34458 0.159585 -3.5338 
290 4.48314 3.06924 -11.4906 -3.48979 -2.86796 -2.66333 -0.444594 -0.125407 0.796523 -3.53334 
291 2.3365 2.62531 -10.2146 -3.44793 -3.51483 -2.99205 -0.408489 -0.297234 0.282128 -3.52982 
292 2.30451 2.65379 -7.66069 -3.42869 -3.51891 -3.01969 -0.41358 -0.304821 0.272276 -3.52983 
293 2.52908 4.80977 -8.93824 -2.78664 -3.54545 -2.68916 -0.372172 -0.784732 0.0818047 -3.53336 
294 4.44591 3.12376 -8.93651 -3.46666 -2.86672 -2.69115 -0.459577 -0.144536 0.787207 -3.53335 
295 0.374064 4.31411 -7.66095 -3.41377 -4.73474 -3.27329 -0.11987 -0.918963 0.0945791 -3.53366 
296 0.321523 4.31866 -5.10766 -3.39862 -4.7359 -3.28879 -0.105053 -0.919484 0.0743666 -3.53367 
297 0.523288 6.48259 -6.38397 -2.79749 -4.34083 -2.85153 -0.131238 -1.34506 0.130327 -3.53382 
298 2.47058 4.84054 -6.38469 -2.76423 -3.54875 -2.70951 -0.368256 -0.788168 0.0638036 -3.53337 
299 0.444427 6.48883 -3.83113 -2.78305 -4.33916 -2.85968 -0.113465 -1.34554 0.10274 -3.53384 
300 4.40788 3.17775 -6.38295 -3.44556 -2.86935 -2.71045 -0.472245 -0.161782 0.779245 -3.53336 
301 2.27212 2.68182 -5.1072 -3.41122 -3.52481 -3.03828 -0.416691 -0.31146 0.263487 -3.52984 
302 2.23933 2.7094 -2.55398 -3.39558 -3.53243 -3.04911 -0.418036 -0.317436 0.255436 -3.52984 
303 2.41164 4.87047 -3.83148 -2.74549 -3.55401 -2.72251 -0.362292 -0.790895 0.0470303 -3.53337 
304 4.36907 3.2312 -3.82973 -3.42655 -2.87546 -2.7225 -0.482812 -0.177666 0.772243 -3.53337 
305 0.268931 4.32251 -2.55463 -3.38773 -4.73723 -3.29736 -0.0897172 -0.919833 0.0552852 -3.53368 
306 0.365502 6.49402 -1.27845 -2.77334 -4.3393 -2.86308 -0.0953037 -1.34603 0.0762132 -3.53385 
307 2.35229 4.89958 -1.27847 -2.73023 -3.56108 -2.72905 -0.354499 -0.793159 0.0310117 -3.53337 
308 4.32953 3.2841 -1.2767 -3.40964 -2.88473 -2.72815 -0.491414 -0.192644 0.76586 -3.53337 
309 2.4375 7.0918 -0.00224359 -2.20851 -3.35935 -2.39948 -0.315907 -1.19713 -0.182958 -3.53292 
310 0.43581 8.66903 -0.00240839 -2.2435 -4.01265 -2.49565 -0.0969563 -1.73266 0.0857561 -3.53361 