ITEM: TIMESTEP
0
ITEM: NUMBER OF ATOMS
37664
ITEM: BOX BOUNDS ff ff ff
-100 100
-100 100
-156.15 156.15
ITEM: ATOMS id x y z v_peratom_sxx v_peratom_syy v_peratom_szz v_peratom_sxy v_peratom_sxz v_peratom_syz c_atomPE 
1 -0.000734597 -0.00027348 -0.000235619 -5.17494 -5.17147 -9.54576 -0.000665576 0.00486108 -0.0116427 -3.51522 
2 -0.000815166 -0.000231167 2.55283 -5.17195 -5.16895 -9.54052 -0.000926035 0.00540544 -0.0113424 -3.51524 
3 -0.000887259 -0.000186862 5.10603 -5.16494 -5.16245 -9.52517 -0.0011736 0.00591176 -0.0109213 -3.51531 
4 -0.00095048 -0.00013996 7.65951 -5.15355 -5.15159 -9.49892 -0.00140413 0.00636708 -0.0103859 -3.51543 
5 -0.00100452 -9.00051e-05 10.2134 -5.13705 -5.13566 -9.4603 -0.00161323 0.00676302 -0.00974608 -3.51561 
6 -0.00104909 -3.67841e-05 12.7679 -5.11432 -5.11351 -9.40708 -0.00179681 0.00709566 -0.00901708 -3.51586 
7 -0.00108384 1.95392e-05 15.3233 -5.08372 -5.08351 -9.33614 -0.00195115 0.00736477 -0.00822184 -3.51619 
8 -0.00110831 7.82878e-05 17.8798 -5.04294 -5.04334 -9.24339 -0.00207295 0.00757306 -0.00739163 -3.51662 
9 -0.00112187 0.000138169 20.4376 -4.9888 -4.9898 -9.12374 -0.00215956 0.00772607 -0.00656532 -3.51716 
10 -0.00112367 0.000197244 22.9973 -4.91706 -4.91863 -8.97125 -0.00220934 0.00783281 -0.00578683 -3.51785 
11 -0.00111261 0.000252994 25.5591 -4.82224 -4.82434 -8.7799 -0.0022223 0.00790683 -0.00510058 -3.5187 
12 -0.00108732 0.000302504 28.1235 -4.69794 -4.7005 -8.54529 -0.00220063 0.00796635 -0.00454517 -3.51972 
13 -0.00104621 0.000342732 30.691 -4.53829 -4.54123 -8.26772 -0.00214871 0.00803265 -0.00414687 -3.52092 
14 -0.000987541 0.000370767 33.2617 -4.34175 -4.34498 -7.95596 -0.00207208 0.00812604 -0.00391551 -3.52222 
15 -0.000909504 0.000383929 35.8356 -4.11627 -4.11967 -7.62761 -0.00197549 0.0082615 -0.00384755 -3.52349 
16 -0.000810293 0.000379579 38.4124 -3.878 -3.88147 -7.30117 -0.00186104 0.00844336 -0.00393476 -3.52459 
17 -0.000688062 0.000354606 40.9916 -3.63863 -3.64205 -6.98321 -0.00172624 0.00866302 -0.00417656 -3.52549 
18 -0.000540112 0.000304468 43.573 -3.3992 -3.40243 -6.66105 -0.00155883 0.00892175 -0.00459516 -3.52621 
19 -0.000361588 0.000221923 46.1569 -3.13448 -3.13728 -6.29803 -0.00131786 0.00922644 -0.00522671 -3.52696 
20 -0.000147885 9.59189e-05 48.7435 -2.7509 -2.75247 -5.85892 -0.000736421 0.00932565 -0.00604948 -3.52783 
21 5.95933e-07 -4.11185e-08 51.3317 -1.92336 -1.92324 -4.91965 6.33167e-05 -0.000475057 0.000310795 -3.53203 
22 4.01304e-07 -1.42881e-06 53.9138 -0.851653 -0.85166 -8.91765 2.54904e-06 -1.02669e-05 -7.19479e-05 -3.48169 
23 8.71386e-07 -1.98378e-06 56.3885 1.68567 1.68567 1.87718 -3.77528e-06 1.17606e-05 -2.24732e-06 -2.55581 
24 -1.23087e-07 -1.12453e-06 -53.8876 -2.60747 -2.60746 -6.54992 -1.79717e-05 1.73262e-05 -3.06468e-05 -3.40182 
25 1.02659e-07 -1.55837e-06 -51.3239 -2.07871 -2.07881 -5.5796 -0.000142033 -0.00019662 0.00059158 -3.52873 
26 7.18447e-05 -0.000166529 -48.7463 -2.69591 -2.69456 -6.14927 0.00168643 0.00434579 -0.0103758 -3.52639 
27 0.0001731 -0.000386251 -46.1646 -3.02217 -3.01998 -6.34837 0.00304566 0.0042629 -0.00933646 -3.52678 
28 0.000242369 -0.000542162 -43.5822 -3.3024 -3.29983 -6.60736 0.00342868 0.00450269 -0.00829365 -3.52635 
29 0.000289381 -0.000649367 -41.0007 -3.55629 -3.55337 -6.8943 0.00355839 0.00465292 -0.00748893 -3.52576 
30 0.000317068 -0.000719255 -38.4208 -3.80503 -3.80178 -7.20187 0.0035605 0.00465482 -0.00693276 -3.52493 
31 0.000327453 -0.000759272 -35.8432 -4.05019 -4.04658 -7.52634 0.00348014 0.0044918 -0.00662288 -3.52387 
32 0.000321957 -0.000774705 -33.2683 -4.28264 -4.27865 -7.85677 0.00333526 0.00416901 -0.00655854 -3.52263 
33 0.000301201 -0.00076983 -30.6965 -4.48947 -4.4851 -8.17563 0.00313319 0.00371617 -0.00673117 -3.52134 
34 0.000265075 -0.00074856 -28.128 -4.66216 -4.65742 -8.46573 0.00287799 0.00319211 -0.00711995 -3.52011 
35 0.000213284 -0.000714801 -25.5625 -4.79956 -4.7945 -8.7163 0.0025755 0.00267748 -0.0076881 -3.51901 
36 0.000146066 -0.000672497 -22.9999 -4.90546 -4.90015 -8.92414 0.00223615 0.00225572 -0.00838079 -3.51809 
37 6.47189e-05 -0.000625377 -20.4396 -4.98541 -4.97998 -9.09141 0.00187464 0.00199053 -0.009131 -3.51733 
38 -2.83128e-05 -0.000576584 -17.8812 -5.04495 -5.0395 -9.22298 0.0015069 0.00191332 -0.00986981 -3.51673 
39 -0.000129744 -0.000528387 -15.3244 -5.08879 -5.08343 -9.32453 0.0011467 0.00202354 -0.010537 -3.51626 
40 -0.000235934 -0.000482068 -12.7688 -5.12066 -5.11547 -9.40144 0.000803049 0.00229716 -0.0110879 -3.51591 
41 -0.000343373 -0.000438005 -10.2141 -5.14336 -5.13842 -9.45832 0.000479363 0.00269792 -0.0114959 -3.51564 
42 -0.000449029 -0.000395892 -7.66008 -5.15893 -5.1543 -9.49884 0.000174334 0.00318711 -0.0117512 -3.51545 
43 -0.00055052 -0.000355014 -5.10654 -5.16882 -5.16454 -9.52576 -0.000115915 0.00372953 -0.0118553 -3.51532 
44 -0.00064611 -0.000314499 -2.55331 -5.17397 -5.17008 -9.541 -0.000395259 0.00429563 -0.0118161 -3.51524 
45 0.0955271 2.1598 1.27602 -4.03696 -5.13648 -3.84044 -0.0508234 -0.440983 0.0130572 -3.5291 
46 0.0693049 2.16083 3.82909 -4.03586 -5.13532 -3.83229 -0.0374591 -0.441069 0.00350831 -3.52911 
47 0.0430931 2.16152 6.38236 -4.03715 -5.13223 -3.81595 -0.0240409 -0.441116 -0.00631015 -3.52912 
48 0.0169007 2.16187 8.93598 -4.04086 -5.1269 -3.79056 -0.0107 -0.441131 -0.0166849 -3.52914 
49 -0.00926354 2.16188 11.4901 -4.04701 -5.11877 -3.75467 0.00241387 -0.441112 -0.0279326 -3.52917 
50 -0.0353905 2.16156 14.045 -4.05553 -5.10698 -3.7062 0.0151191 -0.441046 -0.0404064 -3.5292 
51 -0.0614711 2.16089 16.6007 -4.06616 -5.09022 -3.64234 0.0271868 -0.440911 -0.0544902 -3.52925 
52 -0.0874962 2.15987 19.1577 -4.07822 -5.06653 -3.55952 0.0383229 -0.440671 -0.070565 -3.52931 
53 -0.113458 2.15853 21.7163 -4.09027 -5.033 -3.45341 0.0481543 -0.440284 -0.0889188 -3.52939 
54 -0.139349 2.15686 24.2767 -4.09945 -4.98542 -3.3192 0.0562301 -0.439693 -0.109549 -3.5295 
55 -0.165165 2.1549 26.8395 -4.10046 -4.91783 -3.15241 0.0620685 -0.438826 -0.131795 -3.52964 
56 -0.190902 2.15271 29.4052 -4.08441 -4.82253 -2.95058 0.0653005 -0.437577 -0.153821 -3.52983 
57 -0.216553 2.15037 31.974 -4.03847 -4.6914 -2.71587 0.0659533 -0.435766 -0.172349 -3.5301 
58 -0.242096 2.148 34.5461 -3.94915 -4.52001 -2.45733 0.0647873 -0.433112 -0.183824 -3.53045 
59 -0.267492 2.14562 37.1214 -3.81111 -4.31378 -2.18931 0.063288 -0.429222 -0.187984 -3.53086 
60 -0.292691 2.14318 39.6994 -3.63274 -4.08739 -1.92335 0.0629426 -0.423793 -0.189957 -3.53127 
61 -0.317669 2.14057 42.2797 -3.42596 -3.85161 -1.65981 0.0643894 -0.417062 -0.195945 -3.53163 
62 -0.342473 2.13772 44.862 -3.19717 -3.60332 -1.38736 0.0668095 -0.409804 -0.21263 -3.53193 
63 -0.367292 2.13486 47.4464 -2.91632 -3.29245 -1.10347 0.0668849 -0.405038 -0.231813 -3.53223 
64 -0.392512 2.13371 50.032 -2.43574 -2.79827 -0.494272 0.0639127 -0.418855 -0.201051 -3.53323 
65 -0.418483 2.1304 52.6263 -1.76559 -2.00566 -0.561455 0.0455601 -0.308988 -0.729814 -3.52457 
66 -0.44812 2.14653 55.1778 6.97643 7.73838 2.43102 0.0329749 -0.597337 1.7703 -3.02528 
67 0.649859 2.05055 -55.162 1.38933 0.84224 -0.678783 -0.188265 -0.0991999 1.20754 -3.26036 
68 0.633027 2.08274 -52.6122 -1.11191 -2.21863 -0.457761 -0.374494 -0.489273 -0.161445 -3.53566 
69 0.607028 2.08678 -50.0319 -1.99925 -2.55735 -0.868472 -0.170153 -0.426118 0.0874764 -3.534 
70 0.581654 2.08874 -47.4531 -2.638 -3.07465 -1.20613 -0.129353 -0.396915 0.16523 -3.53289 
71 0.557113 2.09262 -44.871 -3.0579 -3.44504 -1.36733 -0.10999 -0.392404 0.207219 -3.53224 
72 0.532678 2.09719 -42.289 -3.35497 -3.73141 -1.596 -0.101668 -0.397179 0.217816 -3.53182 
73 0.508071 2.10193 -39.7083 -3.59654 -3.98811 -1.84603 -0.100248 -0.403677 0.222969 -3.5314 
74 0.48321 2.10671 -37.1295 -3.79654 -4.22672 -2.10905 -0.104184 -0.409781 0.225862 -3.53097 
75 0.458112 2.11154 -34.5533 -3.95197 -4.44217 -2.37809 -0.112004 -0.415032 0.224196 -3.53055 
76 0.432823 2.11643 -31.9801 -4.05875 -4.62464 -2.64119 -0.121537 -0.419646 0.215314 -3.53018 
77 0.407387 2.12132 -29.4103 -4.12037 -4.76886 -2.88469 -0.130368 -0.423839 0.199229 -3.52988 
78 0.381828 2.12614 -26.8436 -4.14733 -4.87696 -3.09855 -0.136693 -0.427599 0.178505 -3.52966 
79 0.35616 2.13078 -24.2799 -4.15152 -4.95528 -3.27848 -0.139672 -0.430828 0.156138 -3.5295 
80 0.330389 2.13518 -21.7188 -4.14269 -5.01101 -3.42497 -0.139239 -0.433472 0.13431 -3.52938 
81 0.304524 2.13927 -19.1597 -4.12759 -5.05042 -3.54131 -0.135742 -0.435549 0.114197 -3.52929 
82 0.278575 2.14304 -16.6023 -4.11041 -5.07829 -3.63189 -0.12969 -0.437134 0.0962291 -3.52922 
83 0.252552 2.14647 -14.0463 -4.09356 -5.09807 -3.70116 -0.121599 -0.438321 0.0803878 -3.52918 
84 0.226469 2.14955 -11.4913 -4.0783 -5.11213 -3.75304 -0.111926 -0.439198 0.0664281 -3.52914 
85 0.200336 2.15229 -8.93706 -4.06522 -5.12207 -3.79077 -0.101056 -0.439839 0.0540133 -3.52912 
86 0.174165 2.15468 -6.38338 -4.05453 -5.12894 -3.81687 -0.089295 -0.4403 0.0427902 -3.52911 
87 0.147967 2.15672 -3.83008 -4.04628 -5.1334 -3.83313 -0.0768831 -0.440623 0.0324233 -3.5291 
88 0.121751 2.15843 -1.27699 -4.04043 -5.13585 -3.84077 -0.0640086 -0.440842 0.0226062 -3.52909 
89 0.218381 4.32652 -0.000614653 -3.37336 -4.74084 -3.30208 -0.0717773 -0.919348 0.0451152 -3.53368 
90 0.288875 6.49893 1.27562 -2.76382 -4.34204 -2.86461 -0.0732744 -1.34662 0.0551075 -3.53385 
91 2.20827 2.73743 -0.000301924 -3.37342 -3.54569 -3.05388 -0.416278 -0.318329 0.256365 -3.52985 
92 2.17488 2.76397 2.55271 -3.36225 -3.55572 -3.0503 -0.413617 -0.324253 0.248666 -3.52985 
93 2.29484 4.9287 1.27543 -2.71243 -3.57292 -2.72919 -0.342392 -0.793105 0.0214673 -3.53338 
94 4.29154 3.33734 1.27688 -3.38725 -2.89951 -2.7283 -0.496086 -0.203341 0.764916 -3.53337 
95 0.165913 4.32888 2.55225 -3.3715 -4.74172 -3.29852 -0.0550372 -0.919864 0.0267801 -3.53368 
96 0.113448 4.33054 5.10523 -3.3738 -4.74279 -3.28889 -0.0381865 -0.920376 0.00816697 -3.53368 
97 0.210099 6.5019 3.82826 -2.76449 -4.34461 -2.85946 -0.0541786 -1.34765 0.0288726 -3.53385 
98 2.23491 4.95603 3.82839 -2.70499 -3.58242 -2.72344 -0.330726 -0.795549 0.00530735 -3.53338 
99 0.131334 6.50382 6.38108 -2.76997 -4.34889 -2.84975 -0.0350716 -1.34887 0.00199474 -3.53384 
100 4.25071 3.38899 3.82985 -3.37539 -2.91378 -2.72147 -0.500202 -0.218165 0.758637 -3.53338 
101 2.14116 2.79003 5.10585 -3.35324 -3.5671 -3.03991 -0.409414 -0.330296 0.240783 -3.52985 
102 2.10709 2.8156 7.65925 -3.34651 -3.57974 -3.02218 -0.403609 -0.336676 0.232436 -3.52984 
103 2.17463 4.9825 6.38153 -2.70128 -3.59342 -2.71157 -0.317521 -0.798231 -0.0114826 -3.53337 
104 4.20918 3.44004 6.383 -3.36602 -2.9308 -2.70842 -0.502346 -0.233303 0.752049 -3.53337 
105 0.0610037 4.3315 7.65848 -3.38043 -4.74397 -3.27272 -0.0213383 -0.920905 -0.0111674 -3.53368 
106 0.00859662 4.33177 10.2121 -3.39165 -4.74507 -3.24909 -0.00461443 -0.921462 -0.0317016 -3.53368 
107 0.0526036 6.50467 8.93418 -2.78055 -4.35488 -2.83494 -0.0160567 -1.35034 -0.0261013 -3.53382 
108 2.11402 5.0081 8.935 -2.70154 -3.60584 -2.69295 -0.302746 -0.801362 -0.0293786 -3.53337 
109 -0.0260662 6.50444 11.4877 -2.79669 -4.36254 -2.81412 0.00274953 -1.35208 -0.0560452 -3.53379 
110 4.16697 3.49046 8.93647 -3.3593 -2.95059 -2.68848 -0.502345 -0.249132 0.744839 -3.53337 
111 2.0727 2.84066 10.2131 -3.34219 -3.59349 -2.99614 -0.39608 -0.343625 0.22331 -3.52983 
112 2.03799 2.8652 12.7675 -3.34042 -3.60811 -2.9603 -0.386642 -0.351403 0.213046 -3.52982 
113 2.05309 5.0328 11.4889 -2.70612 -3.61956 -2.66655 -0.286317 -0.805177 -0.0489175 -3.53336 
114 4.12408 3.54022 11.4904 -3.35544 -2.9732 -2.6606 -0.499943 -0.266065 0.736642 -3.53337 
115 -0.0437547 4.33133 12.7663 -3.4078 -4.74576 -3.2166 0.0118446 -0.922042 -0.0539642 -3.53367 
116 -0.0960315 4.33019 15.3213 -3.42922 -4.74547 -3.17325 0.027868 -0.922617 -0.0785356 -3.53367 
117 -0.104649 6.50313 14.0418 -2.81894 -4.37172 -2.78594 0.0212103 -1.35412 -0.0885343 -3.53376 
118 1.99187 5.05657 14.0435 -2.71542 -3.63434 -2.63087 -0.268112 -0.809944 -0.070711 -3.53335 
119 -0.183116 6.50073 16.5967 -2.84792 -4.38205 -2.74846 0.0391639 -1.35643 -0.124326 -3.53371 
120 4.08052 3.58929 14.045 -3.35462 -2.99864 -2.62326 -0.494794 -0.284567 0.727015 -3.53336 
121 2.00296 2.8892 15.3227 -3.34125 -3.62317 -2.9126 -0.375054 -0.360307 0.201224 -3.52981 
122 1.96763 2.91263 17.879 -3.34452 -3.63792 -2.85038 -0.361043 -0.370674 0.187373 -3.52978 
123 1.93037 5.07939 16.599 -2.72984 -3.64974 -2.58384 -0.247978 -0.815975 -0.09544 -3.53334 
124 4.0363 3.63764 16.6005 -3.35696 -3.02678 -2.57447 -0.486482 -0.305167 0.715422 -3.53335 
125 -0.148214 4.32834 17.8772 -3.45616 -4.74321 -3.11637 0.0432407 -0.923128 -0.10602 -3.53366 
126 -0.200283 4.32578 20.4345 -3.48846 -4.73729 -3.04251 0.0576844 -0.923475 -0.136964 -3.53365 
127 -0.261436 6.49722 19.1526 -2.88409 -4.39274 -2.69902 0.0564237 -1.3589 -0.164185 -3.53366 
128 1.8686 5.10122 19.1556 -2.7496 -3.66494 -2.52284 -0.225769 -0.823618 -0.123811 -3.53332 
129 -0.339578 6.49262 21.7098 -2.92747 -4.40223 -2.63403 0.072778 -1.36132 -0.208743 -3.53359 
130 3.9914 3.68522 19.1571 -3.36237 -3.05721 -2.51171 -0.474558 -0.328447 0.701229 -3.53333 
131 1.932 2.93548 20.4366 -3.34966 -3.65105 -2.77034 -0.344341 -0.38285 0.171004 -3.52975 
132 1.89607 2.95773 22.9959 -3.35524 -3.66032 -2.66864 -0.324779 -0.39711 0.151721 -3.52971 
133 1.80658 5.12203 21.7136 -2.77454 -3.67849 -2.44463 -0.201398 -0.833237 -0.156438 -3.5333 
134 3.94585 3.732 21.7151 -3.37029 -3.08896 -2.43201 -0.458635 -0.354979 0.683751 -3.53331 
135 -0.252219 4.32252 22.9933 -3.5251 -4.72496 -2.94738 0.0708328 -0.923525 -0.171665 -3.53365 
136 -0.304008 4.31861 25.5542 -3.56341 -4.70177 -2.82608 0.0822045 -0.92313 -0.209806 -3.53366 
137 -0.417508 6.48694 24.2686 -2.97713 -4.40767 -2.54886 0.0879804 -1.36334 -0.2582 -3.53353 
138 1.74433 5.14183 24.2734 -2.80356 -3.68794 -2.34553 -0.17496 -0.845131 -0.193586 -3.53326 
139 -0.495196 6.48028 26.8294 -3.03022 -4.40415 -2.43787 0.10171 -1.3645 -0.311797 -3.53347 
140 3.89967 3.77795 24.2748 -3.3793 -3.12005 -2.33199 -0.438544 -0.385149 0.662393 -3.53327 
141 1.85989 2.97939 25.5573 -3.35832 -3.66199 -2.54126 -0.302441 -0.41345 0.129473 -3.52967 
142 1.82348 3.0005 28.1212 -3.35334 -3.6501 -2.38471 -0.277925 -0.431175 0.105043 -3.52961 
143 1.68189 5.16064 26.8353 -2.83386 -3.68929 -2.22177 -0.146937 -0.859343 -0.234696 -3.53321 
144 3.8529 3.82308 26.8367 -3.38635 -3.14684 -2.20814 -0.414613 -0.418767 0.636978 -3.53322 
145 -0.35564 4.31413 28.1175 -3.59767 -4.66098 -2.67375 0.0912031 -0.922153 -0.249856 -3.53369 
146 -0.40711 4.30924 30.6837 -3.61749 -4.59305 -2.48718 0.0972175 -0.920442 -0.288399 -3.53378 
147 -0.572622 6.4728 29.3928 -3.08062 -4.38377 -2.29501 0.113478 -1.36438 -0.367022 -3.53344 
148 1.6193 5.17858 29.3999 -2.85961 -3.67636 -2.07018 -0.118513 -0.875221 -0.277605 -3.53316 
149 -0.649771 6.46477 31.9592 -3.11697 -4.33465 -2.11564 0.122532 -1.36263 -0.418865 -3.53347 
150 3.80565 3.86744 29.4012 -3.3857 -3.16302 -2.05729 -0.388016 -0.45437 0.608361 -3.53316 
151 1.78695 3.02116 30.6881 -3.33096 -3.61583 -2.19739 -0.252665 -0.448314 0.0807656 -3.52956 
152 1.75042 3.04156 33.2582 -3.27782 -3.54794 -1.98144 -0.22906 -0.461332 0.0609074 -3.52954 
153 1.55668 5.19589 31.9674 -2.87028 -3.64006 -1.88927 -0.0918579 -0.890686 -0.317678 -3.5331 
154 3.75812 3.91118 31.9687 -3.36739 -3.15853 -1.87753 -0.361066 -0.488356 0.579283 -3.53309 
155 -0.458403 4.30414 33.2533 -3.60694 -4.48662 -2.26764 0.0999349 -0.917643 -0.320187 -3.53394 
156 -0.509476 4.29907 35.8264 -3.54804 -4.33271 -2.02395 0.0998489 -0.912911 -0.340643 -3.53421 
157 -0.726621 6.4566 34.5292 -3.12138 -4.24123 -1.90015 0.127965 -1.35878 -0.460208 -3.5336 
158 1.49418 5.21291 34.5383 -2.84957 -3.56821 -1.68084 -0.0699953 -0.901547 -0.347888 -3.53307 
159 -0.8031 6.44865 37.1027 -3.07219 -4.08875 -1.65881 0.129411 -1.35149 -0.485344 -3.53387 
160 3.71062 3.95454 34.5395 -3.31617 -3.1193 -1.67001 -0.336989 -0.514884 0.554762 -3.53306 
161 1.7141 3.0619 35.8317 -3.17986 -3.43631 -1.74413 -0.209828 -0.466397 0.0500018 -3.5296 
162 1.67814 3.08231 38.4082 -3.03142 -3.2791 -1.49631 -0.196135 -0.463179 0.0476211 -3.52976 
163 1.43207 5.23006 37.1126 -2.7783 -3.44799 -1.45187 -0.0556564 -0.90254 -0.362297 -3.53312 
164 3.66353 3.99782 37.1137 -3.21377 -3.03095 -1.4414 -0.318621 -0.528557 0.539964 -3.53311 
165 -0.560243 4.29409 38.4026 -3.4317 -4.13365 -1.7714 0.0985707 -0.905079 -0.3513 -3.53456 
166 -0.610613 4.28904 40.9815 -3.26527 -3.90556 -1.52251 0.0982962 -0.893631 -0.361201 -3.53491 
167 -0.87908 6.44103 39.6796 -2.95749 -3.87682 -1.41165 0.128107 -1.33897 -0.497383 -3.53424 
168 1.37057 5.24751 39.69 -2.64573 -3.27468 -1.2143 -0.0492431 -0.892403 -0.364226 -3.53329 
169 -0.954454 6.43346 42.2588 -2.78553 -3.62567 -1.17654 0.126792 -1.32116 -0.509146 -3.5346 
170 3.61709 4.04117 39.691 -3.04985 -2.88845 -1.20414 -0.306382 -0.530636 0.533434 -3.53328 
171 1.64255 3.10269 40.9874 -2.84085 -3.08526 -1.24582 -0.186338 -0.457018 0.0456651 -3.52999 
172 1.60723 3.12292 43.5686 -2.61805 -2.86295 -0.990383 -0.177921 -0.454561 0.0357186 -3.53026 
173 1.30974 5.26515 42.2697 -2.45823 -3.05753 -0.978331 -0.0479246 -0.87767 -0.368203 -3.53354 
174 3.57126 4.08451 42.2706 -2.83179 -2.7003 -0.970011 -0.298089 -0.531035 0.524185 -3.53352 
175 -0.660574 4.28373 43.5623 -3.05983 -3.65901 -1.27688 0.100185 -0.879451 -0.378768 -3.53522 
176 -0.710313 4.27813 46.1446 -2.82719 -3.39236 -1.01481 0.103452 -0.864928 -0.409321 -3.53548 
177 -1.02929 6.42573 44.8394 -2.56334 -3.34257 -0.960339 0.126928 -1.30038 -0.525882 -3.53494 
178 1.24943 5.28279 44.8509 -2.22298 -2.80153 -0.745576 -0.0498931 -0.866877 -0.385838 -3.53385 
179 -1.10397 6.41818 47.4203 -2.2981 -3.01695 -0.775264 0.129401 -1.28143 -0.537671 -3.53527 
180 3.52583 4.12777 44.8518 -2.56481 -2.47403 -0.744771 -0.291045 -0.538793 0.503505 -3.53382 
181 1.57197 3.14297 46.1515 -2.36738 -2.61499 -0.712597 -0.170431 -0.463536 0.00932068 -3.53053 
182 1.53659 3.16327 48.7363 -2.08975 -2.35856 -0.342167 -0.183123 -0.486847 -0.0298943 -3.53014 
183 1.18916 5.30046 47.4331 -1.94607 -2.50429 -0.514591 -0.0631847 -0.87303 -0.430227 -3.5341 
184 3.4805 4.171 47.4337 -2.24217 -2.21966 -0.536174 -0.285105 -0.564895 0.45995 -3.53402 
185 -0.760384 4.27329 48.7285 -2.60376 -3.07389 -0.669628 0.0968468 -0.85873 -0.413098 -3.53514 
186 -0.811621 4.26877 51.3169 -1.98819 -2.35127 0.311428 0.0839119 -0.841119 -0.653429 -3.53805 
187 -1.17889 6.41384 50.0002 -2.06048 -2.5405 -0.33473 0.090094 -1.28461 -0.616644 -3.53571 
188 1.12775 5.31799 50.0156 -1.56826 -2.0781 -0.01867 -0.111125 -0.949701 -0.596897 -3.53484 
189 -1.25707 6.40546 52.5877 -1.61237 -2.48691 0.64323 0.175694 -1.31608 -0.613235 -3.53282 
190 3.43505 4.21346 50.0156 -1.7572 -1.85144 -0.0343286 -0.309098 -0.671926 0.312808 -3.5349 
191 1.50027 3.18358 51.3264 -1.4315 -1.70131 0.660042 -0.172567 -0.547652 -0.133449 -3.53273 
192 1.46587 3.20964 53.9052 0.0267671 0.954066 -0.795622 0.566334 -0.560924 0.139061 -3.37565 
193 1.06597 5.33731 52.6041 -1.24906 -1.89843 0.441684 -0.236942 -0.80137 -0.410892 -3.52779 
194 3.38747 4.26008 52.6041 -1.41008 -1.71335 0.390028 -0.390731 -0.639519 0.587228 -3.52746 
195 -0.866323 4.2769 53.8949 -0.0509201 -0.206023 -1.18047 0.0793502 -1.26165 1.02745 -3.38131 
196 1.3298 4.1174 -56.3442 5.0694 2.90568 1.60245 -1.25468 -0.273899 0.110252 -2.79034 
197 -1.33605 6.40133 55.1665 4.18025 2.79735 1.29004 0.319952 -1.52316 0.197762 -3.26107 
198 1.00488 5.36129 55.1754 5.64185 6.63179 2.70764 0.369758 -0.636487 -0.0327595 -3.15047 
199 1.98371 6.26223 -55.1334 6.9398 9.11553 2.92898 0.134208 -0.847893 -0.525615 -3.02309 
200 3.34328 4.30996 55.1754 5.53061 7.35744 2.86902 0.118744 -0.278707 0.56255 -3.15115 
201 2.87095 2.09325 -56.362 4.04252 6.00649 1.88089 -3.16452 0.252593 0.341743 -2.79939 
202 2.84551 2.1252 -53.8874 0.16487 0.763198 -3.02658 -0.982157 -0.732837 -0.162385 -3.51266 
203 3.53831 4.21674 -55.1525 6.03164 6.27389 1.75942 0.302439 -1.21955 -0.0444773 -3.1433 
204 5.07312 2.13635 -55.1525 6.04996 7.03884 2.00321 0.446077 -0.528131 0.0805058 -3.14511 
205 1.29262 4.16451 -53.8815 0.861253 -0.348453 -3.67505 -0.408957 -0.573878 0.839012 -3.51412 
206 1.24176 4.17585 -51.3147 -1.28656 -1.91073 -0.372125 -0.214924 -0.880992 0.219598 -3.53904 
207 1.90264 6.26187 -52.5941 -0.918007 -1.45704 -0.573431 -0.184232 -1.1681 0.819908 -3.52791 
208 3.4607 4.22944 -52.6036 -0.748808 -0.925827 0.0956804 -0.677567 -0.496157 0.191306 -3.53019 
209 1.82403 6.27282 -50.0101 -1.6408 -2.3254 -0.259898 -0.200306 -1.27931 0.436741 -3.53674 
210 5.01221 2.17771 -52.6036 -1.34183 -0.348451 0.0548618 -0.502594 0.0190955 0.991467 -3.52952 
211 2.80522 2.14769 -51.32 -1.1034 -0.946593 -0.112522 -0.278001 -0.333311 0.261474 -3.53414 
212 2.7724 2.17476 -48.7405 -1.96757 -1.83752 -0.545043 -0.292154 -0.213111 0.347599 -3.53087 
213 3.40036 4.25787 -50.02 -1.43133 -1.65472 -0.139203 -0.408758 -0.704867 0.290333 -3.53495 
214 4.971 2.23184 -50.02 -1.8442 -1.27404 -0.113397 -0.296445 0.0255948 0.840063 -3.53499 
215 1.18978 4.18059 -48.7354 -2.1787 -2.75593 -0.783689 -0.180948 -0.844696 0.292962 -3.53641 
216 1.14009 4.18699 -46.1539 -2.6377 -3.19493 -0.974126 -0.167116 -0.82952 0.408567 -3.53603 
217 1.74879 6.27895 -47.4305 -2.10119 -2.83449 -0.672134 -0.214577 -1.23779 0.552823 -3.53588 
218 3.34523 4.2878 -47.4411 -1.89761 -2.20905 -0.561323 -0.301767 -0.632691 0.343567 -3.53413 
219 1.67501 6.29099 -44.8493 -2.47093 -3.19571 -0.862338 -0.202657 -1.24179 0.609534 -3.53532 
220 4.93508 2.28478 -47.4403 -2.32024 -1.7895 -0.539831 -0.212802 0.114521 0.871754 -3.53419 
221 2.74242 2.20239 -46.1593 -2.3637 -2.27105 -0.738559 -0.23367 -0.153317 0.400173 -3.53073 
222 2.71426 2.2313 -43.5774 -2.67516 -2.59578 -0.950552 -0.218546 -0.143441 0.419326 -3.53036 
223 3.29192 4.32026 -44.8604 -2.2342 -2.57692 -0.716253 -0.262256 -0.619912 0.377861 -3.53391 
224 4.90242 2.33812 -44.8594 -2.6562 -2.14701 -0.721201 -0.179811 0.150642 0.902167 -3.53391 
225 1.0911 4.19578 -43.5719 -2.97532 -3.51705 -1.20286 -0.155365 -0.838086 0.432374 -3.53552 
226 1.04196 4.20521 -40.9906 -3.23351 -3.79346 -1.44414 -0.153253 -0.851829 0.437677 -3.53508 
227 1.6014 6.30468 -42.2681 -2.75248 -3.50381 -1.09018 -0.20234 -1.26001 0.62363 -3.53482 
228 3.23949 4.35414 -42.2793 -2.50699 -2.87532 -0.916535 -0.245808 -0.623349 0.394445 -3.53359 
229 1.52729 6.319 -39.6882 -2.96187 -3.77219 -1.33413 -0.209085 -1.27967 0.626045 -3.53437 
230 4.87124 2.39232 -42.2784 -2.93888 -2.43097 -0.927714 -0.169861 0.161146 0.926616 -3.53359 
231 2.68658 2.2609 -40.9962 -2.92954 -2.85897 -1.18121 -0.216371 -0.142675 0.43243 -3.53005 
232 2.65895 2.29105 -38.4165 -3.14114 -3.07571 -1.42366 -0.221397 -0.142973 0.443257 -3.5298 
233 3.18725 4.38903 -39.6992 -2.72298 -3.11713 -1.1406 -0.240613 -0.629228 0.403911 -3.53332 
234 4.8406 2.44745 -39.6983 -3.17445 -2.65045 -1.15232 -0.170938 0.164912 0.947803 -3.53332 
235 0.992394 4.21486 -38.4111 -3.43108 -4.03882 -1.695 -0.158029 -0.864996 0.437799 -3.53467 
236 0.942356 4.22468 -35.8339 -3.56977 -4.24998 -1.95039 -0.167059 -0.875787 0.431784 -3.5343 
237 1.4525 6.33378 -37.1105 -3.10232 -3.99672 -1.58611 -0.21937 -1.29614 0.620032 -3.53397 
238 3.13495 4.42483 -37.1212 -2.88279 -3.30251 -1.37461 -0.243982 -0.636447 0.405382 -3.53313 
239 1.37711 6.34904 -34.5358 -3.17482 -4.1664 -1.83266 -0.229124 -1.30896 0.600629 -3.53366 
240 4.81021 2.50353 -37.1202 -3.36027 -2.80842 -1.38565 -0.181425 0.163783 0.96135 -3.53313 
241 2.63128 2.32172 -35.8391 -3.30913 -3.24629 -1.6703 -0.233176 -0.145758 0.448541 -3.52962 
242 2.60356 2.35284 -33.2646 -3.42917 -3.36837 -1.91092 -0.251596 -0.154344 0.44444 -3.52954 
243 3.08253 4.46143 -34.546 -2.98437 -3.43004 -1.60504 -0.255354 -0.64828 0.393623 -3.53305 
244 4.78001 2.56044 -34.545 -3.49126 -2.90679 -1.61573 -0.201541 0.152774 0.962206 -3.53305 
245 0.891928 4.2347 -33.2598 -3.64913 -4.41798 -2.19905 -0.177167 -0.884403 0.415574 -3.534 
246 0.841199 4.24482 -30.6892 -3.67679 -4.54006 -2.42748 -0.185492 -0.891612 0.388109 -3.5338 
247 1.30124 6.36465 -31.9647 -3.18943 -4.27924 -2.05766 -0.235452 -1.31915 0.565502 -3.53348 
248 3.02988 4.49856 -31.9741 -3.03261 -3.50682 -1.8193 -0.273142 -0.665678 0.367484 -3.53305 
249 1.22495 6.38029 -29.3972 -3.16415 -4.34491 -2.25013 -0.237437 -1.32724 0.51818 -3.53341 
250 4.74984 2.61789 -31.9729 -3.57005 -2.95483 -1.83038 -0.229789 0.129451 0.950245 -3.53305 
251 2.57572 2.38423 -30.6934 -3.50287 -3.44603 -2.13433 -0.274964 -0.169351 0.430754 -3.52953 
252 2.54764 2.41567 -28.1255 -3.53893 -3.48965 -2.33215 -0.300425 -0.188406 0.410816 -3.52956 
253 2.97686 4.53579 -29.4055 -3.04012 -3.54676 -2.00916 -0.294431 -0.686204 0.331458 -3.5331 
254 4.71944 2.67557 -29.4043 -3.60726 -2.96774 -2.02099 -0.262846 0.0965943 0.929907 -3.5331 
255 0.790219 4.25486 -28.1218 -3.66761 -4.62208 -2.62608 -0.190339 -0.897797 0.352511 -3.53368 
256 0.739012 4.26459 -25.5576 -3.6369 -4.67376 -2.7913 -0.191185 -0.902947 0.313336 -3.53362 
257 1.14828 6.39557 -26.8329 -3.11661 -4.37714 -2.4068 -0.235324 -1.33321 0.464717 -3.53342 
258 2.9233 4.57276 -26.84 -3.02118 -3.5635 -2.1713 -0.316028 -0.70682 0.291524 -3.53317 
259 1.07126 6.41017 -24.2713 -3.06011 -4.38825 -2.53 -0.229628 -1.33722 0.410466 -3.53346 
260 4.6885 2.7332 -26.8387 -3.61539 -2.96013 -2.18359 -0.297121 0.0591069 0.906155 -3.53315 
261 2.51918 2.44696 -25.5606 -3.54843 -3.51083 -2.50042 -0.32528 -0.208557 0.388568 -3.52962 
262 2.49025 2.47796 -22.9984 -3.54125 -3.51901 -2.63905 -0.347714 -0.227699 0.366814 -3.52967 
263 2.86911 4.60919 -24.2773 -2.98772 -3.56727 -2.30587 -0.335423 -0.725439 0.252175 -3.53322 
264 4.6568 2.79056 -24.276 -3.60525 -2.94291 -2.31791 -0.329978 0.0212629 0.882508 -3.5332 
265 0.68759 4.27383 -22.996 -3.59649 -4.70454 -2.92436 -0.188226 -0.90703 0.274322 -3.5336 
266 0.63597 4.28248 -20.4366 -3.55408 -4.72192 -3.02902 -0.181971 -0.91014 0.237715 -3.5336 
267 0.993913 6.42388 -21.7119 -3.00322 -4.38743 -2.62468 -0.22086 -1.3397 0.358858 -3.53353 
268 2.81426 4.6449 -21.717 -2.94815 -3.56479 -2.41503 -0.351168 -0.74112 0.215863 -3.53326 
269 0.916279 6.43657 -19.1544 -2.95072 -4.38075 -2.69636 -0.209519 -1.34118 0.311531 -3.53359 
270 4.62423 2.84754 -21.7156 -3.58481 -2.92314 -2.42611 -0.35996 -0.0142444 0.860907 -3.53325 
271 2.46082 2.50858 -20.4385 -3.52471 -3.52071 -2.75044 -0.366833 -0.244767 0.347013 -3.52971 
272 2.43086 2.53877 -17.8804 -3.50372 -3.51999 -2.83811 -0.382415 -0.259453 0.329667 -3.52975 
273 2.75874 4.67982 -19.1585 -2.90778 -3.56014 -2.50187 -0.362734 -0.753738 0.183504 -3.5333 
274 4.59073 2.90407 -19.1571 -3.55946 -2.9049 -2.51153 -0.386493 -0.0461746 0.842137 -3.53328 
275 0.58417 4.29046 -17.879 -3.51408 -4.7312 -3.1099 -0.173008 -0.912469 0.204491 -3.53361 
276 0.532213 4.29774 -15.3228 -3.47863 -4.73584 -3.17147 -0.161897 -0.914219 0.174789 -3.53363 
277 0.838394 6.44818 -16.5983 -2.90483 -4.37194 -2.75003 -0.196085 -1.34208 0.268887 -3.53366 
278 2.70258 4.71389 -16.6016 -2.86959 -3.55562 -2.56979 -0.370199 -0.763609 0.155103 -3.53332 
279 0.760292 6.4587 -14.0433 -2.86617 -4.36311 -2.78979 -0.181008 -1.34272 0.230623 -3.53371 
280 4.55628 2.96009 -16.6002 -3.53255 -2.89021 -2.57783 -0.409541 -0.0742759 0.826283 -3.53331 
281 2.4004 2.56852 -15.3238 -3.4813 -3.51915 -2.90589 -0.394623 -0.271881 0.314734 -3.52978 
282 2.36945 2.59782 -12.7684 -3.45921 -3.51937 -2.95731 -0.403804 -0.282375 0.301917 -3.5298 
283 2.64582 4.7471 -14.0459 -2.83503 -3.5524 -2.62201 -0.373943 -0.771217 0.13022 -3.53334 
284 4.52093 3.0156 -14.0445 -3.50602 -2.87984 -2.62843 -0.429329 -0.0988476 0.813064 -3.53333 
285 0.480122 4.30431 -12.7677 -3.44854 -4.73799 -3.21761 -0.149124 -0.915561 0.148294 -3.53364 
286 0.427917 4.31016 -10.2134 -3.42386 -4.73892 -3.25142 -0.135092 -0.91662 0.124488 -3.53365 
287 0.682007 6.4681 -11.4891 -2.83458 -4.35534 -2.81881 -0.164677 -1.34326 0.196111 -3.53376 
288 2.5885 4.77947 -11.4912 -2.80465 -3.55102 -2.66136 -0.374454 -0.777064 0.108242 -3.53335 
289 0.603569 6.47642 -8.93555 -2.80952 -4.34914 -2.83945 -0.147412 -1.34379 0.164615 -3.53379 
290 4.48469 3.07059 -11.4897 -3.48092 -2.87388 -2.66627 -0.446184 -0.120433 0.802047 -3.53334 
291 2.33804 2.62665 -10.2138 -3.43835 -3.5212 -2.99538 -0.410345 -0.291316 0.290827 -3.52982 
292 2.3062 2.65504 -7.65994 -3.4192 -3.52478 -3.02252 -0.414605 -0.299073 0.281071 -3.52983 
293 2.53066 4.81099 -8.93714 -2.77848 -3.55164 -2.69016 -0.372203 -0.781595 0.0885373 -3.53336 
294 4.44762 3.12503 -8.93569 -3.45776 -2.87207 -2.69371 -0.460434 -0.139639 0.792763 -3.53335 
295 0.37562 4.3153 -7.65974 -3.40434 -4.73937 -3.2753 -0.120121 -0.917477 0.102799 -3.53366 
296 0.323253 4.31974 -5.10648 -3.38962 -4.73972 -3.29099 -0.104458 -0.918189 0.0826734 -3.53367 
297 0.52501 6.48365 -6.38243 -2.79038 -4.3447 -2.8534 -0.129465 -1.34437 0.13541 -3.53382 
298 2.47235 4.84167 -6.38362 -2.75636 -3.55424 -2.71023 -0.367594 -0.785183 0.0705128 -3.53337 
299 0.446356 6.4898 -3.82962 -2.77662 -4.34205 -2.86181 -0.111031 -1.34501 0.107823 -3.53384 
300 4.40973 3.17894 -6.38217 -3.43676 -2.87406 -2.71255 -0.472366 -0.157045 0.784775 -3.53336 
301 2.27394 2.68296 -5.10648 -3.40195 -3.53012 -3.04055 -0.41688 -0.305977 0.272287 -3.52984 
302 2.24129 2.71043 -2.55332 -3.38668 -3.53712 -3.05074 -0.41739 -0.312312 0.264149 -3.52985 
303 2.41359 4.87151 -3.83044 -2.73808 -3.55873 -2.72289 -0.360947 -0.788134 0.0536376 -3.53337 
304 4.37107 3.2323 -3.82899 -3.41799 -2.87948 -2.7241 -0.4822 -0.173169 0.777691 -3.53337 
305 0.270833 4.32348 -2.55348 -3.37937 -4.74018 -3.29967 -0.0882929 -0.918801 0.0636007 -3.53368 
306 0.367636 6.49489 -1.27697 -2.76785 -4.34118 -2.86541 -0.0922601 -1.34575 0.0812441 -3.53385 
307 2.35441 4.90052 -1.27747 -2.72347 -3.56499 -2.72905 -0.352494 -0.790701 0.0374355 -3.53337 
308 4.33167 3.28511 -1.27602 -3.40147 -2.88803 -2.7292 -0.490083 -0.188467 0.771173 -3.53337 
309 2.43985 7.09269 -0.000996181 -2.2046 -3.36213 -2.3986 -0.313005 -1.19599 -0.178808 -3.53293 