ITEM: TIMESTEP
0
ITEM: NUMBER OF ATOMS
37664
ITEM: BOX BOUNDS ff ff ff
-100 100
-100 100
-156.15 156.15
ITEM: ATOMS id x y z v_peratom_sxx v_peratom_syy v_peratom_szz v_peratom_sxy v_peratom_sxz v_peratom_syz c_atomPE 
1 -0.00146937 -0.000546308 -0.00103998 -5.17753 -5.17061 -9.54526 -0.00132912 0.00972347 -0.0232875 -3.51522 
2 -0.00163054 -0.000461721 2.55206 -5.17415 -5.16816 -9.53963 -0.00184968 0.010812 -0.022687 -3.51525 
3 -0.00177475 -0.000373149 5.10529 -5.16672 -5.16174 -9.5239 -0.00234453 0.0118244 -0.0218449 -3.51532 
4 -0.00190123 -0.000279387 7.65881 -5.1549 -5.15099 -9.49729 -0.00280537 0.0127347 -0.0207742 -3.51545 
5 -0.00200935 -0.00017952 10.2128 -5.13796 -5.13517 -9.45834 -0.00322349 0.0135262 -0.0194944 -3.51563 
6 -0.00209853 -7.31191e-05 12.7673 -5.11478 -5.11317 -9.40482 -0.00359066 0.014191 -0.0180362 -3.51588 
7 -0.00216809 3.94883e-05 15.3228 -5.08373 -5.08331 -9.33361 -0.00389944 0.0147287 -0.0164454 -3.51621 
8 -0.00221711 0.000156949 17.8793 -5.04249 -5.04328 -9.24062 -0.00414323 0.0151445 -0.0147846 -3.51663 
9 -0.00224431 0.00027668 20.4372 -4.98789 -4.98988 -9.12077 -0.00431665 0.0154496 -0.0131314 -3.51718 
10 -0.00224801 0.000394802 22.9969 -4.9157 -4.91883 -8.96815 -0.00441641 0.0156618 -0.0115739 -3.51786 
11 -0.002226 0.000506277 25.5588 -4.82047 -4.82466 -8.77675 -0.00444244 0.0158081 -0.0102007 -3.51871 
12 -0.00217555 0.000605271 28.1233 -4.69581 -4.70092 -8.54216 -0.00439904 0.0159251 -0.00908946 -3.51974 
13 -0.00209348 0.000685686 30.6908 -4.53589 -4.54177 -8.26474 -0.00429493 0.0160554 -0.00829294 -3.52093 
14 -0.0019763 0.000741686 33.2615 -4.3392 -4.34565 -7.95324 -0.00414111 0.0162402 -0.00783129 -3.52223 
15 -0.00182035 0.00076789 35.8355 -4.11368 -4.12049 -7.62523 -0.00394714 0.0165105 -0.0076978 -3.5235 
16 -0.00162196 0.000759017 38.4123 -3.87549 -3.88242 -7.29917 -0.00371733 0.0168763 -0.00787579 -3.5246 
17 -0.00137741 0.000708873 40.9915 -3.63628 -3.64311 -6.98159 -0.00344704 0.0173209 -0.00836241 -3.5255 
18 -0.00108131 0.000608454 43.573 -3.39707 -3.40352 -6.65977 -0.0031128 0.0178445 -0.0091991 -3.52622 
19 -0.000724028 0.000443302 46.1569 -3.13263 -3.13823 -6.29706 -0.00263457 0.0184587 -0.0104589 -3.52696 
20 -0.000296171 0.000191274 48.7435 -2.74977 -2.75292 -5.85829 -0.00147465 0.0186729 -0.0121033 -3.52783 
21 5.95933e-07 -4.11185e-08 51.3317 -1.92332 -1.92308 -4.91937 0.000115203 -0.000959668 0.000639159 -3.53203 
22 4.01304e-07 -1.42881e-06 53.9138 -0.851711 -0.851721 -8.91767 1.36377e-06 -1.47176e-05 -7.23647e-05 -3.48169 
23 8.71386e-07 -1.98378e-06 56.3885 1.68565 1.68565 1.87711 -6.59735e-06 1.47456e-05 -1.84856e-06 -2.55581 
24 -1.23087e-07 -1.12453e-06 -53.8876 -2.60736 -2.60735 -6.54987 -1.65046e-05 1.48997e-05 -3.24452e-05 -3.40182 
25 1.02659e-07 -1.55837e-06 -51.3239 -2.07888 -2.07909 -5.58145 -0.000278939 -0.000420997 0.00119107 -3.52873 
26 0.000143035 -0.000332083 -48.7463 -2.70078 -2.69808 -6.15578 0.00337798 0.00869917 -0.0207552 -3.52637 
27 0.000345639 -0.000771762 -46.1647 -3.02794 -3.02357 -6.35625 0.00609239 0.00853964 -0.0186739 -3.52675 
28 0.000484385 -0.00108369 -43.5824 -3.30818 -3.30303 -6.61562 0.00685859 0.00901718 -0.0165851 -3.52632 
29 0.000578619 -0.00129809 -41.001 -3.56204 -3.5562 -6.90236 0.00711784 0.00931233 -0.0149761 -3.52573 
30 0.000634123 -0.00143781 -38.4213 -3.81065 -3.80414 -7.20943 0.00712215 0.00931227 -0.0138658 -3.5249 
31 0.00065495 -0.00151779 -35.8437 -4.05561 -4.0484 -7.53319 0.00696164 0.00898443 -0.0132474 -3.52384 
32 0.000643977 -0.00154864 -33.2689 -4.28786 -4.2799 -7.86282 0.00667198 0.0083382 -0.0131192 -3.52261 
33 0.000602459 -0.00153887 -30.6972 -4.49455 -4.48582 -8.18089 0.00626781 0.00743235 -0.0134643 -3.52132 
34 0.000530193 -0.00149633 -28.1287 -4.66717 -4.65769 -8.47027 0.00575723 0.00638429 -0.0142414 -3.52009 
35 0.000426592 -0.0014288 -25.5633 -4.80454 -4.79442 -8.72022 0.00515195 0.0053552 -0.0153774 -3.519 
36 0.000292132 -0.00134419 -23.0007 -4.91041 -4.8998 -8.92753 0.00447295 0.00451193 -0.0167625 -3.51808 
37 0.000129415 -0.00124995 -20.4404 -4.99029 -4.97943 -9.09432 0.00374963 0.00398177 -0.0182629 -3.51733 
38 -5.66694e-05 -0.00115236 -17.8821 -5.0497 -5.0388 -9.22545 0.00301398 0.00382759 -0.0197405 -3.51673 
39 -0.000259551 -0.00105598 -15.3253 -5.09335 -5.08262 -9.32656 0.00229352 0.00404823 -0.021075 -3.51626 
40 -0.000471951 -0.000963351 -12.7697 -5.12496 -5.11459 -9.40304 0.00160632 0.00459562 -0.0221769 -3.5159 
41 -0.000686846 -0.000875242 -10.215 -5.14736 -5.13749 -9.45949 0.000959186 0.00539726 -0.0229933 -3.51564 
42 -0.000898176 -0.000791038 -7.66094 -5.16262 -5.15336 -9.49958 0.000349468 0.00637571 -0.023504 -3.51545 
43 -0.00110118 -0.00070931 -5.10739 -5.17216 -5.1636 -9.52607 -0.000230628 0.00746054 -0.0237125 -3.51532 
44 -0.00129237 -0.000628311 -2.55414 -5.17695 -5.16917 -9.54091 -0.000788891 0.0085927 -0.0236343 -3.51525 
45 0.0946974 2.15957 1.27498 -4.04186 -5.13507 -3.8394 -0.052285 -0.437804 0.00835022 -3.5291 
46 0.0683866 2.16063 3.82809 -4.04011 -5.13422 -3.8309 -0.039166 -0.437693 -0.00101866 -3.52911 
47 0.0420952 2.16136 6.3814 -4.04073 -5.13146 -3.81425 -0.025963 -0.437569 -0.0106037 -3.52912 
48 0.0158326 2.16175 8.93507 -4.04376 -5.12647 -3.78856 -0.0128043 -0.437441 -0.0206961 -3.52914 
49 -0.010392 2.16181 11.4893 -4.0492 -5.11868 -3.7524 0.000162507 -0.437308 -0.0316195 -3.52917 
50 -0.036569 2.16153 14.0442 -4.05698 -5.10723 -3.70369 0.012758 -0.437155 -0.0437374 -3.52921 
51 -0.0626887 2.16091 16.6 -4.06684 -5.09079 -3.63963 0.024755 -0.436957 -0.0574476 -3.52925 
52 -0.0887412 2.15995 19.1571 -4.0781 -5.06738 -3.55664 0.0358617 -0.436672 -0.0731484 -3.52932 
53 -0.114717 2.15865 21.7157 -4.08933 -5.03409 -3.45041 0.0457069 -0.436251 -0.091148 -3.5294 
54 -0.140609 2.15703 24.2762 -4.09769 -4.9867 -3.31614 0.0538404 -0.43563 -0.111465 -3.5295 
55 -0.16641 2.15512 26.8391 -4.09791 -4.91923 -3.14938 0.05978 -0.434724 -0.13346 -3.52965 
56 -0.192115 2.15297 29.4048 -4.08113 -4.82401 -2.94766 0.0631534 -0.433416 -0.155313 -3.52984 
57 -0.217714 2.15067 31.9737 -4.03457 -4.69292 -2.71315 0.0639826 -0.431516 -0.173764 -3.53011 
58 -0.243183 2.14832 34.5458 -3.94481 -4.52156 -2.45489 0.0630197 -0.428733 -0.185262 -3.53046 
59 -0.268481 2.14595 37.1212 -3.80655 -4.31532 -2.1872 0.0617406 -0.424673 -0.189553 -3.53087 
60 -0.293556 2.14349 39.6993 -3.62824 -4.08888 -1.92156 0.0616254 -0.419032 -0.191761 -3.53128 
61 -0.31838 2.14085 42.2796 -3.42181 -3.85296 -1.65827 0.0633142 -0.412047 -0.198098 -3.53164 
62 -0.342994 2.13795 44.862 -3.19373 -3.60435 -1.38586 0.0660072 -0.40443 -0.21528 -3.53193 
63 -0.367577 2.13499 47.4464 -2.91408 -3.29296 -1.10131 0.0664279 -0.398869 -0.235195 -3.53223 
64 -0.392512 2.13371 50.032 -2.43311 -2.79898 -0.491943 0.0622505 -0.415636 -0.203499 -3.53324 
65 -0.418483 2.1304 52.6263 -1.76562 -2.00561 -0.56142 0.0455493 -0.308984 -0.729827 -3.52457 
66 -0.44812 2.14653 55.1778 6.97647 7.73839 2.43099 0.0329845 -0.597333 1.77028 -3.02528 
67 0.649859 2.05055 -55.162 1.38935 0.842273 -0.678695 -0.188262 -0.0991988 1.20756 -3.26036 
68 0.633027 2.08274 -52.6122 -1.11198 -2.21867 -0.457785 -0.374502 -0.489265 -0.161425 -3.53567 
69 0.607028 2.08678 -50.0319 -2.00132 -2.55938 -0.873584 -0.167919 -0.424713 0.0839315 -3.534 
70 0.581816 2.08849 -47.4533 -2.64219 -3.07593 -1.21341 -0.127508 -0.393667 0.159863 -3.53289 
71 0.557398 2.09219 -44.8713 -3.06304 -3.4458 -1.37392 -0.106985 -0.389589 0.202891 -3.53224 
72 0.533047 2.09664 -42.2894 -3.36086 -3.73163 -1.60245 -0.0980286 -0.394545 0.214264 -3.53181 
73 0.508495 2.10129 -39.7087 -3.60309 -3.98783 -1.85226 -0.0962886 -0.401201 0.219985 -3.5314 
74 0.483666 2.10602 -37.1301 -3.80373 -4.22592 -2.11493 -0.100108 -0.407489 0.223262 -3.53096 
75 0.458574 2.11083 -34.554 -3.95979 -4.44083 -2.38351 -0.107976 -0.41295 0.221811 -3.53054 
76 0.43327 2.11572 -31.9809 -4.06715 -4.62278 -2.64608 -0.117708 -0.417785 0.212988 -3.53017 
77 0.407797 2.12063 -29.4111 -4.12926 -4.76656 -2.88904 -0.126877 -0.422179 0.196813 -3.52988 
78 0.382181 2.12548 -26.8445 -4.15655 -4.87429 -3.10235 -0.13365 -0.426089 0.175865 -3.52965 
79 0.356435 2.13016 -24.2809 -4.16088 -4.95235 -3.28173 -0.137151 -0.429392 0.153172 -3.52949 
80 0.330571 2.1346 -21.7198 -4.15198 -5.00794 -3.4277 -0.137265 -0.432026 0.130957 -3.52937 
81 0.3046 2.13874 -19.1607 -4.13665 -5.04731 -3.54353 -0.134302 -0.434017 0.110444 -3.52928 
82 0.278536 2.14255 -16.6034 -4.11911 -5.07524 -3.63364 -0.128744 -0.435458 0.0921057 -3.52922 
83 0.252394 2.14602 -14.0474 -4.10182 -5.09515 -3.70244 -0.121096 -0.436459 0.0759541 -3.52917 
84 0.226189 2.14915 -11.4924 -4.08607 -5.1094 -3.75388 -0.11182 -0.437128 0.0617611 -3.52914 
85 0.199936 2.15192 -8.93817 -4.07247 -5.11956 -3.79121 -0.101309 -0.43755 0.0491948 -3.52912 
86 0.173649 2.15434 -6.38449 -4.06123 -5.12668 -3.81691 -0.0898798 -0.437786 0.0378985 -3.52911 
87 0.147339 2.15643 -3.83117 -4.0524 -5.13141 -3.8328 -0.07778 -0.437882 0.0275299 -3.5291 
88 0.121018 2.15817 -1.27806 -4.04595 -5.13414 -3.84008 -0.0651987 -0.437877 0.017776 -3.5291 
89 0.217518 4.3263 -0.00178237 -3.37787 -4.73975 -3.30116 -0.0738045 -0.916647 0.0434562 -3.53369 
90 0.287857 6.49872 1.27442 -2.7669 -4.34192 -2.86368 -0.075784 -1.34427 0.0549489 -3.53386 
91 2.2074 2.73714 -0.00116084 -3.37805 -3.54345 -3.05455 -0.417878 -0.317021 0.254835 -3.52985 
92 2.17393 2.7637 2.55188 -3.3663 -3.55391 -3.05083 -0.415335 -0.322755 0.247295 -3.52985 
93 2.29385 4.92842 1.27449 -2.71569 -3.57147 -2.73021 -0.344263 -0.791328 0.0213845 -3.53338 
94 4.29056 3.33701 1.27619 -3.39146 -2.89834 -2.72909 -0.497661 -0.20249 0.763956 -3.53337 
95 0.16495 4.32868 2.55111 -3.37543 -4.74104 -3.29729 -0.0571988 -0.917018 0.0252192 -3.53369 
96 0.112393 4.33036 5.10414 -3.37716 -4.74253 -3.28738 -0.0404526 -0.917403 0.0067305 -3.53369 
97 0.208982 6.50171 3.82711 -2.76711 -4.34494 -2.85828 -0.0566786 -1.3452 0.0287915 -3.53385 
98 2.23382 4.95577 3.82749 -2.70778 -3.58142 -2.72422 -0.332598 -0.793643 0.00538825 -3.53338 
99 0.130127 6.50364 6.37997 -2.77213 -4.34966 -2.84834 -0.037536 -1.34635 0.00200214 -3.53384 
100 4.24964 3.38869 3.82918 -3.3791 -2.91303 -2.72214 -0.501823 -0.217158 0.757805 -3.53337 
101 2.14012 2.78979 5.10506 -3.3567 -3.56573 -3.04031 -0.411224 -0.328615 0.239598 -3.52984 
102 2.10599 2.81539 7.65851 -3.34935 -3.57881 -3.02246 -0.405484 -0.334821 0.231461 -3.52984 
103 2.17346 4.98227 6.38067 -2.70358 -3.59286 -2.71211 -0.319373 -0.79621 -0.0112242 -3.53337 
104 4.20804 3.43976 6.38237 -3.3692 -2.93046 -2.70897 -0.503991 -0.232143 0.751361 -3.53337 
105 0.0598663 4.33136 7.65743 -3.38319 -4.74411 -3.27094 -0.0236777 -0.917825 -0.0124555 -3.53369 
106 0.00738728 4.33165 10.2111 -3.39379 -4.7456 -3.24705 -0.00699518 -0.918295 -0.0328207 -3.53368 
107 0.0513172 6.50451 8.93313 -2.78225 -4.35606 -2.83331 -0.0184592 -1.34774 -0.0259958 -3.53383 
108 2.11277 5.00789 8.93419 -2.70335 -3.60571 -2.69326 -0.304557 -0.799238 -0.0289313 -3.53337 
109 -0.0274214 6.50431 11.4867 -2.79789 -4.3641 -2.81227 0.000435787 -1.34943 -0.0558337 -3.5338 
110 4.16577 3.49021 8.93589 -3.36193 -2.95064 -2.68893 -0.503997 -0.247824 0.74431 -3.53337 
111 2.07153 2.84049 10.2124 -3.3444 -3.59299 -2.99631 -0.397994 -0.341607 0.222567 -3.52983 
112 2.03677 2.86507 12.7669 -3.34197 -3.60802 -2.96037 -0.388569 -0.349234 0.212551 -3.52982 
113 2.05179 5.03262 11.4882 -2.70741 -3.61984 -2.66665 -0.288067 -0.80296 -0.0482717 -3.53336 
114 4.12283 3.54001 11.4899 -3.35748 -2.97363 -2.66095 -0.501582 -0.264614 0.736285 -3.53336 
115 -0.0450254 4.33125 12.7654 -3.4093 -4.74668 -3.21433 0.00945534 -0.918806 -0.0548984 -3.53368 
116 -0.0973522 4.33015 15.3204 -3.43005 -4.74674 -3.17077 0.025504 -0.919325 -0.0792753 -3.53367 
117 -0.106061 6.50303 14.0409 -2.81963 -4.37362 -2.78388 0.0190127 -1.35141 -0.0882117 -3.53376 
118 1.99052 5.05642 14.0428 -2.71616 -3.63501 -2.63076 -0.26978 -0.807643 -0.0698595 -3.53335 
119 -0.184573 6.50065 16.5959 -2.84805 -4.38425 -2.74621 0.0371104 -1.35366 -0.123891 -3.53372 
120 4.07924 3.58912 14.0445 -3.35604 -2.99942 -2.62352 -0.4964 -0.282976 0.726841 -3.53336 
121 2.00171 2.88912 15.3221 -3.34209 -3.62349 -2.9126 -0.376967 -0.357997 0.200988 -3.5298 
122 1.96635 2.9126 17.8785 -3.34464 -3.63862 -2.85032 -0.362912 -0.368231 0.187399 -3.52978 
123 1.92898 5.07927 16.5984 -2.72999 -3.65077 -2.58354 -0.249544 -0.813594 -0.0943797 -3.53334 
124 4.03498 3.63751 16.6001 -3.35773 -3.02789 -2.57466 -0.488036 -0.303439 0.715437 -3.53335 
125 -0.149572 4.32834 17.8765 -3.45628 -4.74478 -3.11371 0.0409368 -0.919788 -0.106564 -3.53366 
126 -0.201665 4.32582 20.4338 -3.48783 -4.73911 -3.0397 0.0554763 -0.920091 -0.137321 -3.53366 
127 -0.262924 6.49718 19.1518 -2.88363 -4.39517 -2.6966 0.0545423 -1.35608 -0.163641 -3.53366 
128 1.86718 5.10114 19.155 -2.74914 -3.66628 -2.52236 -0.227208 -0.821158 -0.122544 -3.53332 
129 -0.341081 6.49261 21.7091 -2.92639 -4.40481 -2.63147 0.071096 -1.35843 -0.208098 -3.5336 
130 3.99007 3.68514 19.1567 -3.36244 -3.05862 -2.51185 -0.476038 -0.326583 0.701434 -3.53333 
131 1.9307 2.9355 20.4362 -3.34902 -3.6521 -2.77023 -0.346136 -0.380282 0.171284 -3.52975 
132 1.89478 2.9578 22.9955 -3.35383 -3.66165 -2.66852 -0.326468 -0.394422 0.152235 -3.52971 
133 1.80515 5.122 21.7131 -2.77342 -3.68009 -2.444 -0.202688 -0.830691 -0.154974 -3.5333 
134 3.94452 3.73197 21.7148 -3.36963 -3.09061 -2.43212 -0.460017 -0.352978 0.684138 -3.53331 
135 -0.253611 4.32261 22.9927 -3.5237 -4.72695 -2.94447 0.0687564 -0.920092 -0.171854 -3.53365 
136 -0.305392 4.31874 25.5536 -3.56122 -4.70386 -2.82314 0.080295 -0.919636 -0.209858 -3.53367 
137 -0.419009 6.48698 24.268 -2.9754 -4.4103 -2.5462 0.0865236 -1.36036 -0.257471 -3.53354 
138 1.74291 5.14184 24.2729 -2.80176 -3.68972 -2.34479 -0.176078 -0.84249 -0.191945 -3.53326 
139 -0.496676 6.48036 26.8289 -3.02782 -4.40674 -2.43519 0.1005 -1.36142 -0.311009 -3.53348 
140 3.89835 3.77798 24.2746 -3.37789 -3.12188 -2.3321 -0.439806 -0.383007 0.662944 -3.53327 
141 1.85861 2.97951 25.557 -3.35613 -3.66355 -2.54117 -0.303995 -0.410642 0.130186 -3.52966 
142 1.82224 3.00066 28.121 -3.3504 -3.65181 -2.38469 -0.279317 -0.428245 0.105906 -3.52961 
143 1.68049 5.1607 26.8349 -2.83138 -3.69117 -2.22096 -0.147865 -0.856587 -0.232907 -3.53321 
144 3.85162 3.82315 26.8365 -3.3842 -3.14878 -2.20829 -0.415733 -0.41648 0.63766 -3.53322 
145 -0.356999 4.31431 28.117 -3.5947 -4.66308 -2.67086 0.0894928 -0.918574 -0.249817 -3.5337 
146 -0.408422 4.30945 30.6834 -3.6138 -4.59509 -2.48443 0.0957337 -0.916745 -0.288326 -3.53379 
147 -0.57406 6.47291 29.3924 -3.07755 -4.38621 -2.29239 0.112532 -1.36115 -0.366209 -3.53345 
148 1.61796 5.17868 29.3996 -2.85646 -3.67825 -2.06935 -0.119235 -0.872328 -0.275711 -3.53316 
149 -0.651142 6.46492 31.9589 -3.11331 -4.33687 -2.11318 0.121857 -1.35923 -0.418081 -3.53348 
150 3.80442 3.86756 29.401 -3.38283 -3.16499 -2.05751 -0.388975 -0.451931 0.609128 -3.53316 
151 1.78575 3.02137 30.6879 -3.32736 -3.61761 -2.19748 -0.253872 -0.445258 0.0817117 -3.52956 
152 1.7493 3.0418 33.258 -3.27368 -3.5497 -1.98167 -0.230066 -0.458147 0.0618573 -3.52954 
153 1.5554 5.19602 31.9672 -2.86653 -3.64187 -1.88848 -0.0923657 -0.887631 -0.315739 -3.5331 
154 3.75696 3.91134 31.9686 -3.36389 -3.16044 -1.87786 -0.361847 -0.485763 0.580069 -3.5331 
155 -0.459646 4.30438 33.253 -3.60265 -4.48855 -2.26513 0.0986975 -0.913788 -0.320154 -3.53395 
156 -0.510623 4.29933 35.8261 -3.54337 -4.33452 -2.02174 0.0988668 -0.908853 -0.340737 -3.53422 
157 -0.727898 6.45677 34.5289 -3.11725 -4.24319 -1.89796 0.127557 -1.35515 -0.459528 -3.53361 
158 1.49299 5.21308 34.5381 -2.84536 -3.56987 -1.68014 -0.070284 -0.898311 -0.345983 -3.53307 
159 -0.804254 6.44884 37.1025 -3.06783 -4.09046 -1.65694 0.129252 -1.34761 -0.484867 -3.53387 
160 3.70955 3.95473 34.5394 -3.31219 -3.12107 -1.67047 -0.337579 -0.512144 0.555488 -3.53306 
161 1.71307 3.06216 35.8316 -3.1754 -3.43801 -1.74451 -0.210624 -0.463091 0.0508676 -3.5296 
162 1.67723 3.08256 38.4081 -3.0269 -3.28069 -1.49682 -0.19672 -0.459768 0.0483159 -3.52976 
163 1.431 5.23024 37.1125 -2.77384 -3.44945 -1.45126 -0.0557289 -0.899126 -0.360519 -3.53312 
164 3.66256 3.99802 37.1136 -3.20954 -3.03254 -1.44202 -0.319015 -0.525694 0.540543 -3.53312 
165 -0.561265 4.29435 38.4024 -3.42693 -4.13532 -1.7695 0.0978372 -0.900784 -0.351619 -3.53457 
166 -0.611478 4.28928 40.9813 -3.26074 -3.90703 -1.52086 0.097785 -0.889077 -0.36185 -3.53491 
167 -0.880079 6.44122 39.6794 -2.95324 -3.87828 -1.41008 0.128155 -1.33482 -0.497223 -3.53424 
168 1.36964 5.2477 39.6899 -2.64131 -3.2759 -1.21377 -0.0491182 -0.888836 -0.362674 -3.5333 
169 -0.955268 6.43363 42.2587 -2.78174 -3.62681 -1.17514 0.126968 -1.31677 -0.509429 -3.5346 
170 3.61626 4.04137 39.691 -3.04566 -2.8898 -1.20489 -0.30659 -0.527687 0.533793 -3.53328 
171 1.64178 3.10293 40.9873 -2.83656 -3.08665 -1.24638 -0.186724 -0.453524 0.0461099 -3.52999 
172 1.60663 3.12312 43.5685 -2.61431 -2.86403 -0.990887 -0.178135 -0.451008 0.0358339 -3.53027 
173 1.30899 5.26531 42.2696 -2.45418 -3.05844 -0.977826 -0.0476452 -0.873995 -0.366967 -3.53354 
174 3.57059 4.08469 42.2706 -2.82797 -2.70135 -0.970863 -0.29814 -0.528033 0.524277 -3.53353 
175 -0.661251 4.28394 43.5622 -3.05594 -3.66014 -1.27532 0.0998493 -0.874624 -0.379881 -3.53522 
176 -0.710761 4.27828 46.1446 -2.82433 -3.39278 -1.01304 0.103242 -0.859726 -0.411116 -3.53549 
177 -1.02988 6.42587 44.8393 -2.56034 -3.34319 -0.958856 0.127109 -1.29578 -0.526776 -3.53495 
178 1.24888 5.28292 44.8509 -2.21963 -2.80196 -0.745032 -0.0495446 -0.863147 -0.385008 -3.53385 
179 -1.10431 6.41826 47.4203 -2.29608 -3.01647 -0.773192 0.12947 -1.27655 -0.539442 -3.53527 
180 3.52535 4.12791 44.8518 -2.56173 -2.47466 -0.745733 -0.291006 -0.535754 0.503313 -3.53383 
181 1.57158 3.14311 46.1515 -2.36461 -2.61549 -0.712946 -0.170549 -0.459914 0.0090311 -3.53053 
182 1.53645 3.16332 48.7363 -2.08818 -2.35859 -0.342383 -0.182834 -0.482869 -0.0304857 -3.53015 
183 1.18885 5.30053 47.4331 -1.94385 -2.50401 -0.513968 -0.06299 -0.869202 -0.429757 -3.53411 
184 3.48023 4.17108 47.4337 -2.24049 -2.2196 -0.537366 -0.285174 -0.561718 0.45945 -3.53403 
185 -0.760542 4.27335 48.7284 -2.60194 -3.07285 -0.66702 0.0968223 -0.851947 -0.41614 -3.53515 
186 -0.811621 4.26877 51.3169 -1.98823 -2.35113 0.312423 0.0839103 -0.841595 -0.653265 -3.53805 
187 -1.17889 6.41384 50.0002 -2.05815 -2.54063 -0.332694 0.0881159 -1.28079 -0.618138 -3.53572 
188 1.12775 5.31799 50.0156 -1.56819 -2.07784 -0.0183716 -0.110574 -0.947354 -0.596639 -3.53484 
189 -1.25707 6.40546 52.5877 -1.61243 -2.48691 0.643216 0.175745 -1.31617 -0.613162 -3.53281 
190 3.43505 4.21346 50.0156 -1.75753 -1.85158 -0.0351833 -0.30898 -0.670025 0.312659 -3.5349 
191 1.50027 3.18358 51.3264 -1.43153 -1.70126 0.65972 -0.172584 -0.54814 -0.133262 -3.53272 
192 1.46587 3.20964 53.9052 0.0267549 0.95405 -0.79567 0.566328 -0.560938 0.139042 -3.37565 
193 1.06597 5.33731 52.6041 -1.24907 -1.89846 0.441653 -0.236951 -0.801355 -0.410883 -3.52779 
194 3.38747 4.26008 52.6041 -1.41008 -1.71341 0.389993 -0.39071 -0.639499 0.587255 -3.52746 
195 -0.866323 4.2769 53.8949 -0.0509015 -0.206043 -1.18044 0.0793557 -1.26165 1.02745 -3.38131 
196 1.3298 4.1174 -56.3442 5.0694 2.90565 1.60244 -1.25469 -0.273897 0.110255 -2.79034 
197 -1.33605 6.40133 55.1665 4.1802 2.79737 1.29002 0.319944 -1.52317 0.197789 -3.26107 
198 1.00488 5.36129 55.1754 5.64191 6.6318 2.70766 0.369783 -0.63648 -0.0327256 -3.15047 
199 1.98371 6.26223 -55.1334 6.93981 9.11553 2.92901 0.134203 -0.847896 -0.525628 -3.02309 
200 3.34328 4.30996 55.1754 5.53062 7.3575 2.86904 0.118734 -0.278687 0.56257 -3.15115 
201 2.87095 2.09325 -56.362 4.04253 6.00649 1.88092 -3.16452 0.252605 0.341754 -2.79939 
202 2.84551 2.1252 -53.8874 0.164895 0.763214 -3.02658 -0.982146 -0.732833 -0.16238 -3.51266 
203 3.53831 4.21674 -55.1525 6.03164 6.27389 1.7594 0.302438 -1.21954 -0.0444768 -3.1433 
204 5.07312 2.13635 -55.1525 6.04996 7.03884 2.00319 0.446074 -0.528128 0.0805124 -3.14511 
205 1.29262 4.16451 -53.8815 0.861244 -0.348414 -3.67509 -0.408938 -0.57388 0.839012 -3.51412 
206 1.24176 4.17585 -51.3147 -1.2868 -1.91099 -0.37436 -0.214931 -0.881229 0.219833 -3.53904 
207 1.90264 6.26187 -52.5941 -0.918078 -1.45702 -0.573397 -0.184231 -1.16811 0.819939 -3.52792 
208 3.4607 4.22944 -52.6036 -0.748903 -0.925863 0.0955855 -0.677561 -0.496173 0.191298 -3.53019 
209 1.82403 6.27282 -50.0101 -1.64173 -2.3276 -0.263691 -0.19864 -1.27722 0.435078 -3.53674 
210 5.01221 2.17771 -52.6036 -1.34189 -0.348507 0.0547666 -0.502593 0.0190891 0.991461 -3.52952 
211 2.80522 2.14769 -51.32 -1.1035 -0.94676 -0.113835 -0.278096 -0.333637 0.261771 -3.53414 
212 2.77248 2.17467 -48.7405 -1.97111 -1.83879 -0.549282 -0.292036 -0.210753 0.345291 -3.53087 
213 3.40036 4.25787 -50.02 -1.43264 -1.65558 -0.142238 -0.40912 -0.703276 0.289751 -3.53496 
214 4.971 2.23184 -50.02 -1.84549 -1.27468 -0.115775 -0.296582 0.0268221 0.839062 -3.53499 
215 1.18988 4.1805 -48.7355 -2.18192 -2.75832 -0.789656 -0.180804 -0.84098 0.288371 -3.53641 
216 1.14036 4.18671 -46.154 -2.6417 -3.19494 -0.979991 -0.16552 -0.826714 0.405297 -3.53604 
217 1.749 6.2788 -47.4306 -2.10447 -2.83485 -0.678234 -0.214151 -1.23544 0.549949 -3.53589 
218 3.34542 4.28765 -47.4412 -1.90022 -2.20911 -0.566608 -0.301464 -0.630139 0.342215 -3.53414 
219 1.67536 6.29072 -44.8495 -2.47477 -3.19454 -0.867711 -0.201667 -1.23955 0.607419 -3.53533 
220 4.93523 2.28462 -47.4404 -2.3233 -1.78923 -0.543888 -0.212231 0.116196 0.869919 -3.53419 
221 2.74264 2.20212 -46.1594 -2.36818 -2.27047 -0.743084 -0.232404 -0.151331 0.398258 -3.53074 
222 2.71458 2.2309 -43.5776 -2.68068 -2.59402 -0.954788 -0.216623 -0.141552 0.417742 -3.53037 
223 3.29223 4.31999 -44.8605 -2.23809 -2.57549 -0.721335 -0.261498 -0.617642 0.376736 -3.53392 
224 4.90268 2.33784 -44.8595 -2.6608 -2.14541 -0.725093 -0.178556 0.15212 0.900574 -3.53392 
225 1.09149 4.19536 -43.5721 -2.98012 -3.51602 -1.20847 -0.15307 -0.835476 0.429917 -3.53552 
226 1.04243 4.2047 -40.991 -3.23916 -3.79179 -1.44955 -0.150621 -0.84942 0.435855 -3.53509 
227 1.60185 6.30431 -42.2684 -2.75706 -3.50174 -1.09526 -0.201117 -1.25792 0.622182 -3.53483 
228 3.2399 4.35377 -42.2796 -2.51169 -2.87284 -0.921474 -0.24473 -0.621219 0.393604 -3.5336 
229 1.5278 6.31856 -39.6886 -2.96716 -3.7695 -1.33904 -0.20784 -1.2778 0.625131 -3.53438 
230 4.87157 2.39194 -42.2786 -2.94438 -2.42834 -0.931411 -0.168205 0.16251 0.925214 -3.53359 
231 2.68696 2.26041 -40.9965 -2.93582 -2.8564 -1.18508 -0.214066 -0.140888 0.431138 -3.53006 
232 2.65937 2.29049 -38.4169 -3.14803 -3.07247 -1.42716 -0.218909 -0.141332 0.442186 -3.5298 
233 3.18772 4.3886 -39.6996 -2.72837 -3.11383 -1.14536 -0.23938 -0.627297 0.40331 -3.53333 
234 4.84097 2.447 -39.6986 -3.1806 -2.64701 -1.15576 -0.169078 0.16615 0.94658 -3.53332 
235 0.992913 4.21429 -38.4116 -3.4375 -4.03664 -1.70021 -0.155298 -0.862827 0.436451 -3.53468 
236 0.942894 4.22408 -35.8345 -3.5769 -4.24734 -1.95535 -0.164416 -0.873876 0.43077 -3.5343 
237 1.45305 6.3333 -37.111 -3.10822 -3.99355 -1.59086 -0.218272 -1.29453 0.619521 -3.53397 
238 3.13544 4.42436 -37.1217 -2.88877 -3.29851 -1.37918 -0.242743 -0.63476 0.40496 -3.53314 
239 1.37765 6.34855 -34.5365 -3.18119 -4.16285 -1.83719 -0.228309 -1.30759 0.600404 -3.53367 
240 4.8106 2.50303 -37.1206 -3.36694 -2.80434 -1.38881 -0.179524 0.164869 0.960282 -3.53314 
241 2.6317 2.32112 -35.8396 -3.31655 -3.24247 -1.67346 -0.230665 -0.144305 0.447616 -3.52963 
242 2.60397 2.35223 -33.2652 -3.43703 -3.36406 -1.91375 -0.249201 -0.153108 0.443585 -3.52954 
243 3.08302 4.46094 -34.5466 -2.99084 -3.42548 -1.60941 -0.254241 -0.646852 0.393317 -3.53305 
244 4.78039 2.5599 -34.5454 -3.49834 -2.90223 -1.61862 -0.199735 0.153689 0.961257 -3.53305 
245 0.892457 4.23409 -33.2606 -3.65686 -4.41493 -2.20368 -0.174768 -0.882738 0.414767 -3.534 
246 0.841691 4.24423 -30.69 -3.68498 -4.53667 -2.43173 -0.183467 -0.890146 0.38739 -3.5338 
247 1.30174 6.36417 -31.9655 -3.19613 -4.2754 -2.06189 -0.235021 -1.31796 0.565458 -3.53349 
248 3.03034 4.49806 -31.9747 -3.03945 -3.50181 -1.82347 -0.272264 -0.664495 0.367232 -3.53306 
249 1.22539 6.37983 -29.3981 -3.17098 -4.34089 -2.25399 -0.237447 -1.32614 0.51822 -3.53342 
250 4.75019 2.61735 -31.9735 -3.57746 -2.94994 -1.83301 -0.228192 0.130184 0.949366 -3.53305 
251 2.5761 2.38362 -30.694 -3.51109 -3.44132 -2.13688 -0.272813 -0.168344 0.429889 -3.52953 
252 2.54796 2.41508 -28.1262 -3.54739 -3.48465 -2.33447 -0.298621 -0.187621 0.40987 -3.52957 
253 2.97725 4.5353 -29.4062 -3.04718 -3.54145 -2.01314 -0.293871 -0.685225 0.331204 -3.53311 
254 4.71973 2.67503 -29.4049 -3.61489 -2.96268 -2.02339 -0.261547 0.0971461 0.929044 -3.5331 
255 0.790648 4.25429 -28.1227 -3.67606 -4.61844 -2.62989 -0.188778 -0.896454 0.351773 -3.53368 
256 0.739356 4.26405 -25.5586 -3.64542 -4.66997 -2.79463 -0.190131 -0.90164 0.31249 -3.53363 
257 1.14864 6.39513 -26.8338 -3.12341 -4.37304 -2.41023 -0.235786 -1.33211 0.464764 -3.53342 
258 2.92361 4.57229 -26.8408 -3.02831 -3.55805 -2.17508 -0.315833 -0.705986 0.291223 -3.53317 
259 1.07151 6.40977 -24.2723 -3.06677 -4.38422 -2.53294 -0.230513 -1.33605 0.410464 -3.53347 
260 4.68871 2.73266 -26.8394 -3.62314 -2.95503 -2.1858 -0.296179 0.059488 0.905258 -3.53315 
261 2.51942 2.4464 -25.5614 -3.55699 -3.50567 -2.50256 -0.323893 -0.207967 0.387482 -3.52962 
262 2.4904 2.47742 -22.9992 -3.54975 -3.51381 -2.64104 -0.346774 -0.227255 0.365556 -3.52967 
263 2.86932 4.60874 -24.2782 -2.99476 -3.56183 -2.30943 -0.335602 -0.724683 0.251798 -3.53322 
264 4.65693 2.79004 -24.2767 -3.613 -2.9379 -2.31996 -0.32942 0.0214982 0.881541 -3.5332 
265 0.687832 4.27334 -22.9971 -3.6049 -4.70073 -2.92718 -0.187677 -0.905678 0.273309 -3.53361 
266 0.636096 4.28202 -20.4378 -3.56226 -4.71819 -3.03133 -0.181887 -0.908686 0.236511 -3.53361 
267 0.994039 6.42351 -21.713 -3.00966 -4.38356 -2.62712 -0.222115 -1.33842 0.358777 -3.53353 
268 2.81435 4.64447 -21.7179 -2.95499 -3.55951 -2.41836 -0.351696 -0.740378 0.215403 -3.53327 
269 0.916276 6.43623 -19.1556 -2.95691 -4.37716 -2.6983 -0.211078 -1.33977 0.311366 -3.5336 
270 4.62425 2.84704 -21.7163 -3.59245 -2.91833 -2.42802 -0.359779 -0.0141167 0.859851 -3.53325 
271 2.46086 2.50807 -20.4394 -3.53302 -3.51561 -2.75228 -0.366333 -0.244407 0.345577 -3.52971 
272 2.43079 2.5383 -17.8813 -3.51173 -3.51509 -2.83983 -0.382319 -0.259112 0.328072 -3.52975 
273 2.75871 4.67941 -19.1595 -2.91434 -3.55514 -2.50496 -0.36357 -0.752956 0.182972 -3.5333 
274 4.59063 2.90359 -19.1578 -3.56689 -2.90038 -2.51332 -0.386661 -0.0461077 0.840993 -3.53328 
275 0.584172 4.29004 -17.8802 -3.52194 -4.72765 -3.11171 -0.173332 -0.910878 0.203101 -3.53362 
276 0.532087 4.29736 -15.324 -3.48611 -4.73255 -3.17281 -0.16257 -0.912475 0.173241 -3.53363 
277 0.838257 6.44787 -16.5995 -2.91073 -4.3687 -2.75149 -0.19789 -1.34054 0.268647 -3.53366 
278 2.70242 4.7135 -16.6026 -2.87581 -3.55097 -2.57262 -0.371293 -0.762749 0.154522 -3.53332 
279 0.760019 6.4584 -14.0445 -2.87176 -4.36026 -2.79081 -0.183008 -1.34106 0.23033 -3.53372 
280 4.55607 2.95963 -16.6009 -3.53969 -2.88604 -2.57951 -0.410017 -0.0742206 0.825066 -3.53331 
281 2.40021 2.56807 -15.3248 -3.48894 -3.51453 -2.90747 -0.394886 -0.271501 0.313015 -3.52978 
282 2.36914 2.5974 -12.7693 -3.46641 -3.5151 -2.95874 -0.404378 -0.281905 0.300119 -3.5298 
283 2.64553 4.74673 -14.0469 -2.8409 -3.54818 -2.62458 -0.375249 -0.770255 0.12962 -3.53334 
284 4.52059 3.01516 -14.0453 -3.51283 -2.87607 -2.62999 -0.430068 -0.0987577 0.8118 -3.53332 
285 0.479864 4.30395 -12.7689 -3.45561 -4.73501 -3.2185 -0.150097 -0.913661 0.146628 -3.53364 
286 0.427529 4.30983 -10.2147 -3.43048 -4.7363 -3.2519 -0.136326 -0.914562 0.122748 -3.53366 
287 0.681599 6.46783 -11.4904 -2.83982 -4.35293 -2.81943 -0.166833 -1.34148 0.195789 -3.53376 
288 2.58808 4.77911 -11.4922 -2.81012 -3.54725 -2.66366 -0.37593 -0.775982 0.107657 -3.53335 
289 0.603029 6.47616 -8.93681 -2.81437 -4.34718 -2.83971 -0.149693 -1.3419 0.164289 -3.5338 
290 4.48424 3.07016 -11.4905 -3.48737 -2.87053 -2.66771 -0.447143 -0.120269 0.800765 -3.53334 
291 2.33761 2.62626 -10.2148 -3.4451 -3.5173 -2.99666 -0.411187 -0.290717 0.288998 -3.52982 
292 2.30565 2.65467 -7.66086 -3.42545 -3.52129 -3.02365 -0.415681 -0.298318 0.279258 -3.52983 
293 2.53012 4.81065 -8.93814 -2.78355 -3.54833 -2.6922 -0.373816 -0.780381 0.0879985 -3.53336 
294 4.44704 3.12462 -8.93647 -3.46381 -2.86916 -2.69503 -0.461577 -0.13937 0.791495 -3.53335 
295 0.375106 4.315 -7.66096 -3.41048 -4.73711 -3.2754 -0.121588 -0.915259 0.101027 -3.53367 
296 0.322615 4.31947 -5.10769 -3.39524 -4.73784 -3.29073 -0.106135 -0.915809 0.080906 -3.53367 
297 0.52434 6.4834 -6.38369 -2.79481 -4.3432 -2.85332 -0.131844 -1.34236 0.135101 -3.53382 
298 2.47168 4.84134 -6.38462 -2.761 -3.5514 -2.71201 -0.369314 -0.78383 0.0700511 -3.53337 
299 0.445563 6.48957 -3.83086 -2.7806 -4.34102 -2.86143 -0.11348 -1.34288 0.107549 -3.53384 
300 4.40905 3.17855 -6.38293 -3.44238 -2.87158 -2.71375 -0.473659 -0.156647 0.783548 -3.53336 
301 2.27328 2.68262 -5.10739 -3.40768 -3.52703 -3.04152 -0.418159 -0.305046 0.270531 -3.52984 
302 2.24052 2.71011 -2.55421 -3.39186 -3.53446 -3.05156 -0.418843 -0.311195 0.262489 -3.52984 
303 2.4128 4.8712 -3.83143 -2.74227 -3.55636 -2.72442 -0.362744 -0.786638 0.0532799 -3.53337 
304 4.37028 3.23193 -3.82974 -3.42316 -2.87745 -2.72516 -0.483613 -0.172627 0.776532 -3.53336 
305 0.270079 4.32323 -2.55467 -3.38444 -4.73869 -3.29908 -0.0901575 -0.916257 0.0618722 -3.53368 
306 0.366726 6.49467 -1.2782 -2.77137 -4.3406 -2.86475 -0.0947529 -1.34351 0.0810205 -3.53385 
307 2.35351 4.90023 -1.27844 -2.7272 -3.56309 -2.73032 -0.354342 -0.789062 0.0372054 -3.53337 
308 4.33078 3.28475 -1.27675 -3.40617 -2.88644 -2.73013 -0.491589 -0.187772 0.770103 -3.53337 
309 2.43881 7.0924 -0.00198709 -2.20687 -3.36108 -2.40002 -0.315011 -1.19437 -0.178073 -3.53293 
310 0.437164 8.66963 -0.00191077 -2.24332 -4.01359 -2.49746 -0.0956686 -1.73097 0.0891218 -3.53361 