ITEM: TIMESTEP
0
ITEM: NUMBER OF ATOMS
37664
ITEM: BOX BOUNDS ff ff ff
-100 100
-100 100
-156.15 156.15
ITEM: ATOMS id x y z v_peratom_sxx v_peratom_syy v_peratom_szz v_peratom_sxy v_peratom_sxz v_peratom_syz c_atomPE 
1 -0.00220415 -0.000819136 -0.00184434 -5.18014 -5.16975 -9.54476 -0.00199046 0.0145866 -0.0349324 -3.51523 
2 -0.0024459 -0.000692274 2.55129 -5.17635 -5.16737 -9.53874 -0.0027707 0.0162192 -0.0340318 -3.51526 
3 -0.00266224 -0.000559437 5.10456 -5.16851 -5.16104 -9.52263 -0.00351247 0.0177376 -0.0327686 -3.51533 
4 -0.00285198 -0.000418815 7.65811 -5.15626 -5.15039 -9.49566 -0.00420336 0.0191029 -0.0311625 -3.51546 
5 -0.00301418 -0.000269034 10.2121 -5.13888 -5.1347 -9.45638 -0.00483029 0.0202899 -0.0292427 -3.51564 
6 -0.00314798 -0.000109454 12.7667 -5.11525 -5.11283 -9.40255 -0.00538097 0.0212868 -0.0270552 -3.51589 
7 -0.00325234 5.94373e-05 15.3222 -5.08374 -5.08312 -9.33107 -0.00584419 0.0220928 -0.0246688 -3.51622 
8 -0.0033259 0.000235611 17.8788 -5.04204 -5.04323 -9.23785 -0.00621004 0.0227161 -0.0221772 -3.51665 
9 -0.00336675 0.000415191 20.4368 -4.98699 -4.98996 -9.11781 -0.00647043 0.0231731 -0.0196971 -3.5172 
10 -0.00337235 0.00059236 22.9965 -4.91435 -4.91904 -8.96505 -0.00662036 0.0234906 -0.0173603 -3.51788 
11 -0.00333939 0.000759561 25.5584 -4.8187 -4.82498 -8.77359 -0.00665968 0.0237091 -0.0153002 -3.51873 
12 -0.00326378 0.000908039 28.123 -4.69368 -4.70135 -8.53904 -0.00659479 0.0238833 -0.013633 -3.51976 
13 -0.00314076 0.00102864 30.6906 -4.5335 -4.54231 -8.26177 -0.0064387 0.0240774 -0.0124382 -3.52095 
14 -0.00296507 0.0011126 33.2614 -4.33665 -4.34632 -7.95053 -0.0062079 0.0243534 -0.0117463 -3.52224 
15 -0.00273119 0.00115185 35.8354 -4.11111 -4.12131 -7.62286 -0.00591672 0.0247583 -0.0115473 -3.52351 
16 -0.00243363 0.00113846 38.4122 -3.87299 -3.88339 -7.29718 -0.00557167 0.0253078 -0.0118162 -3.52461 
17 -0.00206675 0.00106314 40.9915 -3.63394 -3.64418 -6.97997 -0.00516598 0.0259774 -0.0125477 -3.5255 
18 -0.00162252 0.00091244 43.573 -3.39494 -3.4046 -6.65849 -0.00466495 0.0267657 -0.0138026 -3.52622 
19 -0.00108647 0.000664682 46.1568 -3.13078 -3.13919 -6.29608 -0.00394957 0.0276895 -0.0156909 -3.52697 
20 -0.000444458 0.000286629 48.7435 -2.74864 -2.75338 -5.85767 -0.00221169 0.0280194 -0.018157 -3.52783 
21 5.95933e-07 -4.11185e-08 51.3317 -1.92328 -1.92293 -4.9191 0.000167056 -0.00144414 0.000967516 -3.53203 
22 4.01304e-07 -1.42881e-06 53.9138 -0.851769 -0.851781 -8.91769 1.78874e-07 -1.91689e-05 -7.27815e-05 -3.48169 
23 8.71386e-07 -1.98378e-06 56.3885 1.68563 1.68564 1.87704 -9.41942e-06 1.77306e-05 -1.44979e-06 -2.55581 
24 -1.23087e-07 -1.12453e-06 -53.8876 -2.60725 -2.60725 -6.54983 -1.50368e-05 1.24755e-05 -3.42449e-05 -3.40183 
25 1.02659e-07 -1.55837e-06 -51.3239 -2.07905 -2.07936 -5.5833 -0.000415991 -0.000645755 0.00179092 -3.52874 
26 0.000214225 -0.000497638 -48.7464 -2.70566 -2.7016 -6.16228 0.00507231 0.0130544 -0.031136 -3.52634 
27 0.000518178 -0.00115727 -46.1649 -3.03372 -3.02716 -6.36415 0.00914209 0.0128192 -0.0280125 -3.52672 
28 0.000726401 -0.00162523 -43.5826 -3.31397 -3.30624 -6.62388 0.0102915 0.0135345 -0.0248775 -3.52629 
29 0.000867856 -0.00194681 -41.0013 -3.5678 -3.55904 -6.91042 0.0106802 0.0139745 -0.0224646 -3.52569 
30 0.000951178 -0.00215635 -38.4217 -3.81627 -3.80651 -7.21699 0.0106866 0.0139723 -0.0208001 -3.52487 
31 0.000982447 -0.00227632 -35.8443 -4.06103 -4.05022 -7.54004 0.0104457 0.0134795 -0.0198733 -3.52381 
32 0.000965996 -0.00232257 -33.2695 -4.29309 -4.28115 -7.86887 0.010011 0.0125098 -0.0196811 -3.52258 
33 0.000903718 -0.00230792 -30.6979 -4.49964 -4.48654 -8.18614 0.00940437 0.0111508 -0.0201984 -3.5213 
34 0.000795312 -0.0022441 -28.1294 -4.67218 -4.65796 -8.4748 0.00863801 0.00957862 -0.0213637 -3.52007 
35 0.000639899 -0.00214281 -25.5641 -4.80953 -4.79434 -8.72414 0.0077295 0.00803491 -0.0230671 -3.51899 
36 0.000438198 -0.00201588 -23.0015 -4.91536 -4.89946 -8.93092 0.00671041 0.00676995 -0.0251445 -3.51807 
37 0.000194112 -0.00187452 -20.4413 -4.99518 -4.97888 -9.09724 0.00562495 0.00597465 -0.0273946 -3.51732 
38 -8.50261e-05 -0.00172814 -17.8829 -5.05446 -5.03811 -9.22792 0.00452117 0.00574332 -0.029611 -3.51672 
39 -0.000389359 -0.00158357 -15.3261 -5.0979 -5.08182 -9.3286 0.00344041 0.00607423 -0.0316127 -3.51625 
40 -0.000707967 -0.00144463 -12.7705 -5.12926 -5.11372 -9.40464 0.00240977 0.00689527 -0.0332657 -3.5159 
41 -0.00103032 -0.00131248 -10.2158 -5.15138 -5.13657 -9.46065 0.00143945 0.0080977 -0.0344905 -3.51564 
42 -0.00134732 -0.00118618 -7.6618 -5.16631 -5.15242 -9.50031 0.00052542 0.00956532 -0.0352567 -3.51545 
43 -0.00165183 -0.00106361 -5.10824 -5.17551 -5.16267 -9.52639 -0.000344081 0.0111925 -0.0355696 -3.51532 
44 -0.00193864 -0.000942123 -2.55497 -5.17994 -5.16827 -9.54081 -0.00118079 0.0128906 -0.0354525 -3.51525 
45 0.0938678 2.15934 1.27394 -4.04675 -5.13366 -3.83835 -0.0537475 -0.434623 0.00364414 -3.5291 
46 0.0674683 2.16044 3.82709 -4.04436 -5.13313 -3.82952 -0.0408738 -0.434317 -0.00554512 -3.52911 
47 0.0410973 2.1612 6.38045 -4.04432 -5.1307 -3.81255 -0.0278859 -0.43402 -0.0148971 -3.52913 
48 0.0147645 2.16164 8.93417 -4.04666 -5.12604 -3.78656 -0.0149092 -0.433749 -0.0247075 -3.52915 
49 -0.0115205 2.16173 11.4884 -4.05139 -5.1186 -3.75013 -0.00208908 -0.433502 -0.0353069 -3.52917 
50 -0.0377476 2.1615 14.0434 -4.05843 -5.10748 -3.70118 0.0103968 -0.433263 -0.047069 -3.52921 
51 -0.0639063 2.16093 16.5993 -4.06751 -5.09135 -3.63691 0.0223234 -0.433001 -0.0604056 -3.52926 
52 -0.0899862 2.16002 19.1564 -4.07798 -5.06823 -3.55376 0.0334011 -0.432671 -0.0757325 -3.52932 
53 -0.115977 2.15877 21.7151 -4.0884 -5.03519 -3.44741 0.0432603 -0.432217 -0.0933779 -3.5294 
54 -0.141869 2.15721 24.2757 -4.09594 -4.98798 -3.31308 0.0514518 -0.431565 -0.113382 -3.52951 
55 -0.167655 2.15535 26.8387 -4.09536 -4.92064 -3.14634 0.0574926 -0.430621 -0.135125 -3.52965 
56 -0.193328 2.15324 29.4044 -4.07784 -4.8255 -2.94474 0.0610077 -0.429255 -0.156807 -3.52985 
57 -0.218874 2.15097 31.9734 -4.03067 -4.69444 -2.71043 0.0620133 -0.427265 -0.175179 -3.53012 
58 -0.24427 2.14864 34.5456 -3.94047 -4.5231 -2.45246 0.0612534 -0.424354 -0.186702 -3.53047 
59 -0.26947 2.14627 37.121 -3.80201 -4.31687 -2.18509 0.0601943 -0.420125 -0.191123 -3.53088 
60 -0.29442 2.14381 39.6991 -3.62375 -4.09038 -1.91977 0.060309 -0.414272 -0.193565 -3.53128 
61 -0.31909 2.14114 42.2795 -3.41767 -3.85431 -1.65672 0.0622392 -0.407031 -0.200253 -3.53165 
62 -0.343516 2.13817 44.8619 -3.19029 -3.60538 -1.38437 0.0652045 -0.399056 -0.21793 -3.53194 
63 -0.367863 2.13513 47.4463 -2.91183 -3.29346 -1.09917 0.06597 -0.3927 -0.238578 -3.53224 
64 -0.392512 2.13371 50.032 -2.43049 -2.79969 -0.489614 0.0605879 -0.412418 -0.205947 -3.53324 
65 -0.418483 2.1304 52.6263 -1.76565 -2.00556 -0.561384 0.0455386 -0.30898 -0.72984 -3.52457 
66 -0.44812 2.14653 55.1778 6.97651 7.7384 2.43097 0.0329941 -0.597329 1.77026 -3.02528 
67 0.649859 2.05055 -55.162 1.38938 0.842306 -0.678607 -0.188259 -0.0991976 1.20757 -3.26036 
68 0.633027 2.08274 -52.6122 -1.11205 -2.21872 -0.457809 -0.37451 -0.489257 -0.161406 -3.53567 
69 0.607028 2.08678 -50.0319 -2.0034 -2.56142 -0.878698 -0.165685 -0.423307 0.0803871 -3.53399 
70 0.581978 2.08825 -47.4534 -2.64639 -3.07721 -1.2207 -0.125663 -0.390419 0.154497 -3.5329 
71 0.557682 2.09177 -44.8715 -3.06819 -3.44656 -1.38053 -0.103979 -0.386774 0.198564 -3.53224 
72 0.533416 2.0961 -42.2897 -3.36675 -3.73187 -1.60889 -0.0943879 -0.39191 0.210713 -3.53181 
73 0.50892 2.10066 -39.7092 -3.60965 -3.98755 -1.85849 -0.0923269 -0.398723 0.217002 -3.53139 
74 0.484121 2.10534 -37.1306 -3.81092 -4.22512 -2.12081 -0.09603 -0.405196 0.220663 -3.53096 
75 0.459037 2.11012 -34.5546 -3.9676 -4.43949 -2.38894 -0.103946 -0.410868 0.219428 -3.53054 
76 0.433717 2.11501 -31.9816 -4.07555 -4.62092 -2.65098 -0.113878 -0.415923 0.210663 -3.53016 
77 0.408207 2.11994 -29.4119 -4.13816 -4.76425 -2.89338 -0.123384 -0.420519 0.194399 -3.52987 
78 0.382533 2.12482 -26.8454 -4.16577 -4.87162 -3.10614 -0.130607 -0.424579 0.173228 -3.52965 
79 0.356711 2.12954 -24.2818 -4.17023 -4.94943 -3.28499 -0.13463 -0.427956 0.150209 -3.52948 
80 0.330754 2.13402 -21.7208 -4.16127 -5.00488 -3.43043 -0.135292 -0.430579 0.127607 -3.52936 
81 0.304677 2.13821 -19.1618 -4.1457 -5.04421 -3.54576 -0.132863 -0.432485 0.106694 -3.52928 
82 0.278498 2.14207 -16.6045 -4.12781 -5.0722 -3.63538 -0.127798 -0.43378 0.0879849 -3.52922 
83 0.252236 2.14558 -14.0485 -4.11008 -5.09224 -3.70372 -0.120594 -0.434597 0.0715229 -3.52917 
84 0.22591 2.14874 -11.4935 -4.09384 -5.10667 -3.75473 -0.111714 -0.435058 0.0570965 -3.52914 
85 0.199537 2.15155 -8.93928 -4.07972 -5.11706 -3.79164 -0.101562 -0.43526 0.0443785 -3.52912 
86 0.173132 2.15401 -6.38559 -4.06793 -5.12442 -3.81695 -0.0904658 -0.435271 0.0330087 -3.5291 
87 0.146711 2.15613 -3.83226 -4.05853 -5.12942 -3.83247 -0.0786781 -0.43514 0.0226381 -3.5291 
88 0.120286 2.1579 -1.27913 -4.05147 -5.13243 -3.83938 -0.0663899 -0.43491 0.012947 -3.5291 
89 0.216655 4.32607 -0.0029501 -3.38237 -4.73867 -3.30025 -0.0758326 -0.913944 0.0417974 -3.53369 
90 0.28684 6.49851 1.27323 -2.76997 -4.3418 -2.86276 -0.078294 -1.34191 0.0547902 -3.53386 
91 2.20654 2.73685 -0.00201976 -3.38268 -3.54121 -3.05522 -0.419479 -0.31571 0.253305 -3.52984 
92 2.17298 2.76344 2.55106 -3.37035 -3.5521 -3.05136 -0.417055 -0.321254 0.245924 -3.52984 
93 2.29285 4.92814 1.27356 -2.71896 -3.57002 -2.73123 -0.346136 -0.789548 0.021302 -3.53338 
94 4.28958 3.33668 1.27549 -3.39568 -2.89717 -2.72989 -0.499236 -0.201637 0.762997 -3.53337 
95 0.163986 4.32847 2.54998 -3.37936 -4.74036 -3.29607 -0.0593612 -0.91417 0.0236583 -3.53369 
96 0.111338 4.33019 5.10305 -3.38051 -4.74226 -3.28586 -0.0427193 -0.914428 0.00529395 -3.53369 
97 0.207865 6.50152 3.82595 -2.76973 -4.34527 -2.85711 -0.0591788 -1.34275 0.0287103 -3.53386 
98 2.23273 4.95551 3.82658 -2.71057 -3.58042 -2.72499 -0.334471 -0.791735 0.00546934 -3.53338 
99 0.12892 6.50346 6.37886 -2.7743 -4.35042 -2.84693 -0.0400004 -1.34382 0.00200951 -3.53385 
100 4.24858 3.38838 3.82852 -3.38281 -2.91228 -2.7228 -0.503444 -0.216149 0.756973 -3.53337 
101 2.13909 2.78955 5.10427 -3.36015 -3.56436 -3.0407 -0.413034 -0.32693 0.238414 -3.52984 
102 2.10488 2.81519 7.65777 -3.3522 -3.57787 -3.02274 -0.40736 -0.332963 0.230486 -3.52984 
103 2.17229 4.98203 6.37981 -2.7059 -3.5923 -2.71265 -0.321225 -0.794185 -0.0109658 -3.53337 
104 4.20691 3.43948 6.38175 -3.37239 -2.93012 -2.70952 -0.505637 -0.230981 0.750673 -3.53337 
105 0.058729 4.33121 7.65639 -3.38595 -4.74425 -3.26915 -0.0260175 -0.914744 -0.0137437 -3.53369 
106 0.00617794 4.33154 10.2101 -3.39594 -4.74614 -3.24502 -0.00937608 -0.915128 -0.03394 -3.53369 
107 0.0500308 6.50435 8.93207 -2.78395 -4.35723 -2.83167 -0.0208615 -1.34514 -0.0258903 -3.53383 
108 2.11153 5.00767 8.93337 -2.70516 -3.60558 -2.69358 -0.306368 -0.79711 -0.0284839 -3.53337 
109 -0.0287766 6.50417 11.4857 -2.7991 -4.36565 -2.81042 -0.00187759 -1.34677 -0.0556222 -3.5338 
110 4.16457 3.48996 8.93531 -3.36456 -2.9507 -2.68937 -0.505648 -0.246515 0.743781 -3.53337 
111 2.07037 2.84032 10.2117 -3.34661 -3.59248 -2.99648 -0.399909 -0.339586 0.221823 -3.52983 
112 2.03555 2.86494 12.7662 -3.34351 -3.60794 -2.96045 -0.390496 -0.347061 0.212055 -3.52981 
113 2.05049 5.03243 11.4874 -2.7087 -3.62012 -2.66675 -0.289818 -0.80074 -0.0476258 -3.53336 
114 4.12159 3.5398 11.4894 -3.35953 -2.97406 -2.66129 -0.50322 -0.263161 0.735927 -3.53336 
115 -0.0462961 4.33117 12.7645 -3.4108 -4.74759 -3.21206 0.00706612 -0.915569 -0.0558329 -3.53368 
116 -0.0986728 4.33011 15.3196 -3.43088 -4.748 -3.16829 0.0231403 -0.916032 -0.0800153 -3.53368 
117 -0.107474 6.50292 14.04 -2.82032 -4.37552 -2.78183 0.0168156 -1.34869 -0.0878889 -3.53377 
118 1.98916 5.05627 14.0421 -2.7169 -3.63567 -2.63065 -0.271449 -0.80534 -0.0690081 -3.53335 
119 -0.18603 6.50057 16.595 -2.84819 -4.38645 -2.74396 0.0350576 -1.35089 -0.123455 -3.53372 
120 4.07795 3.58895 14.0441 -3.35747 -3.0002 -2.62378 -0.498007 -0.281384 0.726665 -3.53335 
121 2.00045 2.88903 15.3216 -3.34294 -3.62381 -2.91259 -0.37888 -0.355684 0.200751 -3.5298 
122 1.96506 2.91256 17.878 -3.34476 -3.63932 -2.85025 -0.364781 -0.365786 0.187424 -3.52977 
123 1.92759 5.07916 16.5977 -2.73014 -3.65179 -2.58324 -0.251109 -0.811211 -0.0933196 -3.53334 
124 4.03366 3.63738 16.5996 -3.35849 -3.029 -2.57485 -0.489589 -0.30171 0.71545 -3.53334 
125 -0.150931 4.32834 17.8757 -3.4564 -4.74635 -3.11105 0.0386333 -0.916447 -0.107108 -3.53367 
126 -0.203048 4.32586 20.4331 -3.48721 -4.74092 -3.03689 0.0532688 -0.916705 -0.137677 -3.53366 
127 -0.264412 6.49714 19.151 -2.88318 -4.3976 -2.69417 0.0526617 -1.35325 -0.163096 -3.53367 
128 1.86577 5.10107 19.1544 -2.74867 -3.66762 -2.52189 -0.228647 -0.818695 -0.121278 -3.53332 
129 -0.342584 6.4926 21.7084 -2.92532 -4.40739 -2.6289 0.0694149 -1.35553 -0.207453 -3.53361 
130 3.98874 3.68506 19.1563 -3.36251 -3.06002 -2.512 -0.477517 -0.324717 0.701637 -3.53333 
131 1.9294 2.93551 20.4357 -3.34839 -3.65314 -2.77013 -0.347931 -0.377711 0.171563 -3.52974 
132 1.89348 2.95786 22.9951 -3.35242 -3.66299 -2.66841 -0.328158 -0.391731 0.152749 -3.52971 
133 1.80373 5.12197 21.7126 -2.77231 -3.68169 -2.44338 -0.203977 -0.828144 -0.153511 -3.53329 
134 3.94319 3.73194 21.7144 -3.36898 -3.09226 -2.43224 -0.461399 -0.350974 0.684524 -3.5333 
135 -0.255003 4.32269 22.9921 -3.52231 -4.72894 -2.94156 0.0666809 -0.916658 -0.172043 -3.53366 
136 -0.306777 4.31887 25.5531 -3.55903 -4.70594 -2.8202 0.0783866 -0.91614 -0.209911 -3.53367 
137 -0.42051 6.48701 24.2674 -2.97367 -4.41293 -2.54355 0.0850678 -1.35738 -0.256742 -3.53354 
138 1.74149 5.14185 24.2725 -2.79997 -3.6915 -2.34405 -0.177195 -0.839846 -0.190304 -3.53326 
139 -0.498157 6.48043 26.8284 -3.02542 -4.40933 -2.4325 0.0992917 -1.35833 -0.31022 -3.53348 
140 3.89704 3.778 24.2743 -3.37649 -3.12372 -2.33222 -0.441068 -0.380863 0.663493 -3.53327 
141 1.85733 2.97962 25.5567 -3.35395 -3.66511 -2.54108 -0.305548 -0.407832 0.130899 -3.52966 
142 1.82099 3.00083 28.1207 -3.34748 -3.65352 -2.38467 -0.280708 -0.425313 0.106767 -3.5296 
143 1.6791 5.16076 26.8346 -2.8289 -3.69306 -2.22015 -0.148791 -0.85383 -0.231118 -3.53321 
144 3.85033 3.82323 26.8363 -3.38205 -3.15072 -2.20844 -0.416853 -0.414191 0.638341 -3.53322 
145 -0.358358 4.31448 28.1166 -3.59174 -4.66517 -2.66797 0.0877837 -0.914995 -0.249778 -3.53371 
146 -0.409735 4.30966 30.683 -3.61012 -4.59713 -2.48169 0.0942511 -0.913049 -0.288253 -3.53379 
147 -0.575497 6.47302 29.3919 -3.07449 -4.38866 -2.28977 0.111587 -1.35793 -0.365396 -3.53346 
148 1.61661 5.17878 29.3992 -2.85332 -3.68014 -2.06852 -0.119957 -0.869434 -0.273817 -3.53316 
149 -0.652513 6.46506 31.9585 -3.10964 -4.3391 -2.11073 0.121182 -1.35582 -0.417296 -3.53349 
150 3.80318 3.86768 29.4009 -3.37997 -3.16696 -2.05773 -0.389934 -0.449491 0.609893 -3.53316 
151 1.78455 3.02157 30.6877 -3.32376 -3.61938 -2.19757 -0.255079 -0.4422 0.082656 -3.52955 
152 1.74817 3.04203 33.2579 -3.26955 -3.55147 -1.9819 -0.231072 -0.454961 0.0628052 -3.52954 
153 1.55412 5.19616 31.9669 -2.86279 -3.64368 -1.88769 -0.0928736 -0.884574 -0.313801 -3.5331 
154 3.75579 3.91149 31.9684 -3.36039 -3.16235 -1.87819 -0.362628 -0.483169 0.580853 -3.5331 
155 -0.460889 4.30462 33.2527 -3.59837 -4.49049 -2.26262 0.0974611 -0.909932 -0.320122 -3.53396 
156 -0.511769 4.29958 35.8259 -3.5387 -4.33633 -2.01953 0.0978855 -0.904796 -0.340833 -3.53423 
157 -0.729175 6.45694 34.5286 -3.11312 -4.24516 -1.89577 0.12715 -1.35153 -0.458847 -3.53362 
158 1.49181 5.21324 34.538 -2.84115 -3.57153 -1.67943 -0.0705729 -0.895075 -0.344079 -3.53307 
159 -0.805408 6.44902 37.1023 -3.06348 -4.09218 -1.65506 0.129094 -1.34373 -0.48439 -3.53388 
160 3.70847 3.95491 34.5393 -3.3082 -3.12285 -1.67094 -0.338168 -0.509403 0.556211 -3.53306 
161 1.71204 3.06241 35.8314 -3.17094 -3.43971 -1.74489 -0.21142 -0.459783 0.0517312 -3.5296 
162 1.67631 3.08282 38.4081 -3.02238 -3.28227 -1.49732 -0.197306 -0.456356 0.0490083 -3.52976 
163 1.42993 5.23042 37.1123 -2.76938 -3.4509 -1.45066 -0.055802 -0.895712 -0.358743 -3.53313 
164 3.6616 3.99822 37.1136 -3.20531 -3.03413 -1.44264 -0.319408 -0.52283 0.54112 -3.53312 
165 -0.562287 4.29461 38.4022 -3.42215 -4.13699 -1.7676 0.0971042 -0.89649 -0.351939 -3.53458 
166 -0.612344 4.28953 40.9812 -3.25622 -3.90851 -1.51921 0.0972738 -0.884524 -0.362499 -3.53492 
167 -0.881079 6.44141 39.6793 -2.94899 -3.87975 -1.4085 0.128203 -1.33068 -0.497062 -3.53425 
168 1.36872 5.24788 39.6898 -2.6369 -3.27712 -1.21325 -0.0489943 -0.88527 -0.361124 -3.5333 
169 -0.956081 6.43381 42.2586 -2.77795 -3.62796 -1.17374 0.127143 -1.31237 -0.509712 -3.53461 
170 3.61544 4.04157 39.6909 -3.04148 -2.89116 -1.20564 -0.306798 -0.524737 0.534149 -3.53329 
171 1.64101 3.10317 40.9873 -2.83227 -3.08805 -1.24693 -0.18711 -0.45003 0.0465525 -3.52999 
172 1.60603 3.12332 43.5685 -2.61058 -2.86512 -0.991392 -0.17835 -0.447453 0.0359472 -3.53027 
173 1.30824 5.26547 42.2695 -2.45014 -3.05934 -0.977321 -0.0473675 -0.87032 -0.365733 -3.53355 
174 3.56993 4.08487 42.2706 -2.82415 -2.70241 -0.971716 -0.298192 -0.525032 0.524368 -3.53353 
175 -0.661927 4.28415 43.5621 -3.05205 -3.66126 -1.27377 0.0995128 -0.869798 -0.380995 -3.53523 
176 -0.711209 4.27843 46.1445 -2.82146 -3.3932 -1.01127 0.103031 -0.854523 -0.412911 -3.53549 
177 -1.03048 6.42601 44.8392 -2.55735 -3.34381 -0.957374 0.127289 -1.29117 -0.52767 -3.53496 
178 1.24833 5.28304 44.8509 -2.21628 -2.80238 -0.744489 -0.0491982 -0.859417 -0.384178 -3.53386 
179 -1.10465 6.41835 47.4203 -2.29407 -3.01599 -0.77112 0.129538 -1.27168 -0.541214 -3.53528 
180 3.52486 4.12805 44.8518 -2.55865 -2.4753 -0.746695 -0.290968 -0.532715 0.50312 -3.53383 
181 1.57118 3.14325 46.1515 -2.36185 -2.616 -0.713295 -0.170669 -0.456292 0.00874 -3.53053 
182 1.5363 3.16336 48.7363 -2.0866 -2.35862 -0.342601 -0.182548 -0.478891 -0.0310781 -3.53015 
183 1.18854 5.3006 47.4331 -1.94163 -2.50373 -0.513344 -0.0627978 -0.865374 -0.429288 -3.53412 
184 3.47997 4.17116 47.4337 -2.23881 -2.21954 -0.538558 -0.285245 -0.558542 0.458949 -3.53404 
185 -0.760699 4.2734 48.7284 -2.60012 -3.0718 -0.664415 0.096796 -0.845164 -0.419183 -3.53516 
186 -0.811621 4.26877 51.3169 -1.98826 -2.351 0.313417 0.0839087 -0.842072 -0.653102 -3.53805 
187 -1.17889 6.41384 50.0002 -2.05583 -2.54075 -0.330659 0.0861371 -1.27697 -0.619631 -3.53573 
188 1.12775 5.31799 50.0156 -1.56812 -2.07758 -0.0180733 -0.110026 -0.945006 -0.596383 -3.53484 
189 -1.25707 6.40546 52.5877 -1.61249 -2.4869 0.643202 0.175796 -1.31626 -0.61309 -3.53281 
190 3.43505 4.21346 50.0156 -1.75787 -1.85172 -0.036038 -0.308863 -0.668123 0.312509 -3.5349 
191 1.50027 3.18358 51.3264 -1.43157 -1.70121 0.659399 -0.172601 -0.548628 -0.133075 -3.53272 
192 1.46587 3.20964 53.9052 0.0267427 0.954035 -0.795718 0.566321 -0.560951 0.139022 -3.37565 
193 1.06597 5.33731 52.6041 -1.24909 -1.89849 0.441621 -0.23696 -0.801341 -0.410874 -3.52779 
194 3.38747 4.26008 52.6041 -1.41009 -1.71348 0.389957 -0.390688 -0.639478 0.587283 -3.52746 
195 -0.866323 4.2769 53.8949 -0.0508829 -0.206062 -1.18042 0.0793612 -1.26165 1.02745 -3.38132 
196 1.3298 4.1174 -56.3442 5.06941 2.90563 1.60243 -1.2547 -0.273896 0.110258 -2.79034 
197 -1.33605 6.40133 55.1665 4.18016 2.7974 1.29001 0.319937 -1.52318 0.197816 -3.26107 
198 1.00488 5.36129 55.1754 5.64196 6.63182 2.70769 0.369808 -0.636472 -0.0326918 -3.15047 
199 1.98371 6.26223 -55.1334 6.93983 9.11552 2.92905 0.134198 -0.847899 -0.52564 -3.02309 
200 3.34328 4.30996 55.1754 5.53063 7.35755 2.86906 0.118725 -0.278668 0.562591 -3.15115 
201 2.87095 2.09325 -56.362 4.04253 6.00649 1.88094 -3.16452 0.252618 0.341765 -2.79939 
202 2.84551 2.1252 -53.8874 0.164921 0.763229 -3.02659 -0.982134 -0.732829 -0.162374 -3.51266 
203 3.53831 4.21674 -55.1525 6.03164 6.2739 1.75938 0.302437 -1.21953 -0.0444762 -3.1433 
204 5.07312 2.13635 -55.1525 6.04996 7.03885 2.00318 0.446071 -0.528126 0.0805191 -3.14511 
205 1.29262 4.16451 -53.8815 0.861236 -0.348375 -3.67512 -0.408919 -0.573882 0.839012 -3.51412 
206 1.24176 4.17585 -51.3147 -1.28704 -1.91125 -0.376595 -0.214937 -0.881466 0.220069 -3.53904 
207 1.90264 6.26187 -52.5941 -0.918149 -1.457 -0.573363 -0.18423 -1.16811 0.819969 -3.52792 
208 3.4607 4.22944 -52.6036 -0.748999 -0.925899 0.0954907 -0.677555 -0.496189 0.191291 -3.53019 
209 1.82403 6.27282 -50.0101 -1.64267 -2.32979 -0.267483 -0.196974 -1.27514 0.433416 -3.53675 
210 5.01221 2.17771 -52.6036 -1.34196 -0.348563 0.0546715 -0.502592 0.0190828 0.991455 -3.52952 
211 2.80522 2.14769 -51.32 -1.10361 -0.946926 -0.115147 -0.27819 -0.333962 0.262067 -3.53415 
212 2.77256 2.17458 -48.7405 -1.97466 -1.84007 -0.553524 -0.291919 -0.208393 0.342984 -3.53087 
213 3.40036 4.25787 -50.02 -1.43394 -1.65644 -0.145275 -0.409482 -0.701685 0.28917 -3.53496 
214 4.971 2.23184 -50.02 -1.84678 -1.27531 -0.118152 -0.29672 0.0280492 0.838061 -3.53499 
215 1.18998 4.1804 -48.7356 -2.18515 -2.76071 -0.795625 -0.180661 -0.837264 0.28378 -3.53641 
216 1.14063 4.18644 -46.1542 -2.6457 -3.19494 -0.985858 -0.163924 -0.823907 0.402028 -3.53605 
217 1.74922 6.27866 -47.4307 -2.10775 -2.83522 -0.684336 -0.213725 -1.23308 0.547076 -3.53589 
218 3.34561 4.2875 -47.4412 -1.90282 -2.20916 -0.571894 -0.301163 -0.627587 0.340864 -3.53415 
219 1.67571 6.29045 -44.8497 -2.47862 -3.19338 -0.873086 -0.200678 -1.23731 0.605305 -3.53534 
220 4.93539 2.28446 -47.4404 -2.32637 -1.78897 -0.547946 -0.21166 0.117871 0.868085 -3.5342 
221 2.74286 2.20186 -46.1595 -2.37266 -2.2699 -0.747612 -0.231139 -0.149344 0.396346 -3.53074 
222 2.71489 2.23051 -43.5778 -2.68619 -2.59227 -0.959026 -0.2147 -0.139662 0.41616 -3.53037 
223 3.29255 4.31971 -44.8607 -2.24198 -2.57406 -0.726418 -0.26074 -0.615371 0.375613 -3.53392 
224 4.90294 2.33755 -44.8597 -2.6654 -2.14381 -0.728986 -0.177302 0.153598 0.898982 -3.53392 
225 1.09187 4.19495 -43.5724 -2.98493 -3.515 -1.21409 -0.150775 -0.832865 0.427461 -3.53553 
226 1.0429 4.20419 -40.9914 -3.24481 -3.79013 -1.45498 -0.147988 -0.84701 0.434034 -3.53509 
227 1.6023 6.30394 -42.2687 -2.76164 -3.49967 -1.10034 -0.199895 -1.25584 0.620735 -3.53484 
228 3.24031 4.35341 -42.2798 -2.51639 -2.87037 -0.926416 -0.243652 -0.619089 0.392764 -3.5336 
229 1.52832 6.31812 -39.689 -2.97244 -3.76681 -1.34397 -0.206596 -1.27594 0.624217 -3.53439 
230 4.8719 2.39155 -42.2788 -2.94989 -2.42571 -0.935111 -0.166549 0.163874 0.923814 -3.53359 
231 2.68734 2.25991 -40.9968 -2.94211 -2.85383 -1.18896 -0.211761 -0.139099 0.429848 -3.53006 
232 2.65978 2.28993 -38.4173 -3.15493 -3.06924 -1.43067 -0.216421 -0.13969 0.441118 -3.52981 
233 3.18819 4.38816 -39.7 -2.73376 -3.11052 -1.15012 -0.238149 -0.625364 0.402711 -3.53333 
234 4.84135 2.44654 -39.6989 -3.18676 -2.64357 -1.15921 -0.167218 0.167389 0.945359 -3.53332 
235 0.993432 4.21372 -38.4121 -3.44393 -4.03446 -1.70544 -0.152567 -0.860657 0.435104 -3.53468 
236 0.943433 4.22348 -35.8351 -3.58403 -4.2447 -1.96032 -0.161773 -0.871964 0.429756 -3.5343 
237 1.45359 6.33283 -37.1115 -3.11412 -3.99038 -1.59561 -0.217175 -1.29292 0.619009 -3.53398 
238 3.13594 4.42388 -37.1221 -2.89475 -3.29452 -1.38375 -0.241506 -0.633072 0.404539 -3.53314 
239 1.3782 6.34807 -34.5371 -3.18757 -4.1593 -1.84172 -0.227496 -1.30621 0.600178 -3.53367 
240 4.81099 2.50252 -37.121 -3.37361 -2.80026 -1.39198 -0.177623 0.165956 0.959215 -3.53314 
241 2.63213 2.32053 -35.8401 -3.32397 -3.23866 -1.67661 -0.228153 -0.142851 0.446694 -3.52963 
242 2.60438 2.35162 -33.2658 -3.44489 -3.35975 -1.91659 -0.246806 -0.15187 0.442732 -3.52955 
243 3.0835 4.46044 -34.5471 -2.99732 -3.42092 -1.61378 -0.253128 -0.645424 0.393012 -3.53306 
244 4.78077 2.55937 -34.5459 -3.50543 -2.89768 -1.62151 -0.197929 0.154604 0.960309 -3.53305 
245 0.892987 4.23349 -33.2613 -3.66459 -4.41189 -2.20832 -0.17237 -0.881072 0.413959 -3.534 
246 0.842182 4.24363 -30.6908 -3.69316 -4.53328 -2.43598 -0.181442 -0.888681 0.386672 -3.5338 
247 1.30225 6.36369 -31.9663 -3.20283 -4.27156 -2.06613 -0.234591 -1.31676 0.565413 -3.53349 
248 3.03079 4.49756 -31.9754 -3.0463 -3.4968 -1.82765 -0.271386 -0.663311 0.366981 -3.53306 
249 1.22583 6.37937 -29.3989 -3.17782 -4.33686 -2.25786 -0.237459 -1.32503 0.518259 -3.53342 
250 4.75054 2.6168 -31.974 -3.58487 -2.94506 -1.83564 -0.226595 0.130918 0.948489 -3.53305 
251 2.57647 2.38301 -30.6947 -3.51931 -3.43661 -2.13944 -0.270661 -0.167335 0.429027 -3.52954 
252 2.54827 2.41449 -28.1269 -3.55585 -3.47966 -2.3368 -0.296817 -0.186836 0.408925 -3.52957 
253 2.97764 4.53481 -29.407 -3.05425 -3.53614 -2.01711 -0.293313 -0.684246 0.330951 -3.53311 
254 4.72002 2.67449 -29.4055 -3.62253 -2.95762 -2.02579 -0.260248 0.097698 0.928183 -3.5331 
255 0.791077 4.25372 -28.1236 -3.68451 -4.6148 -2.6337 -0.187219 -0.895112 0.351035 -3.53368 
256 0.7397 4.26352 -25.5596 -3.65394 -4.66619 -2.79797 -0.18908 -0.900333 0.311645 -3.53363 
257 1.14899 6.3947 -26.8348 -3.13022 -4.36895 -2.41366 -0.236251 -1.33101 0.46481 -3.53343 
258 2.92392 4.57181 -26.8416 -3.03543 -3.55259 -2.17885 -0.31564 -0.705151 0.290922 -3.53317 
259 1.07175 6.40936 -24.2733 -3.07344 -4.38018 -2.53589 -0.231401 -1.33488 0.410461 -3.53347 
260 4.68892 2.73213 -26.84 -3.63089 -2.94993 -2.188 -0.295238 0.0598691 0.904362 -3.53315 
261 2.51966 2.44583 -25.5622 -3.56555 -3.50051 -2.5047 -0.322508 -0.207376 0.386398 -3.52962 
262 2.49055 2.47688 -23.0001 -3.55825 -3.50862 -2.64303 -0.345836 -0.226809 0.364299 -3.52967 
263 2.86953 4.60828 -24.2791 -3.0018 -3.55639 -2.313 -0.335782 -0.723926 0.251422 -3.53322 
264 4.65705 2.78953 -24.2774 -3.62074 -2.93289 -2.32201 -0.328862 0.0217335 0.880575 -3.5332 
265 0.688073 4.27284 -22.9981 -3.61331 -4.69691 -2.93001 -0.187129 -0.904327 0.272297 -3.53361 
266 0.636222 4.28157 -20.4389 -3.57044 -4.71447 -3.03364 -0.181805 -0.907232 0.235308 -3.53361 
267 0.994165 6.42314 -21.7142 -3.01611 -4.3797 -2.62956 -0.223371 -1.33714 0.358697 -3.53354 
268 2.81445 4.64404 -21.7188 -2.96183 -3.55423 -2.42169 -0.352227 -0.739634 0.214945 -3.53327 
269 0.916274 6.43589 -19.1567 -2.9631 -4.37357 -2.70023 -0.21264 -1.33835 0.3112 -3.53361 
270 4.62427 2.84654 -21.717 -3.60008 -2.91352 -2.42994 -0.359599 -0.013989 0.858796 -3.53324 
271 2.4609 2.50757 -20.4402 -3.54133 -3.51051 -2.75413 -0.365834 -0.244045 0.344143 -3.52971 
272 2.43072 2.53782 -17.8822 -3.51975 -3.51019 -2.84154 -0.382225 -0.25877 0.326478 -3.52975 
273 2.75868 4.679 -19.1604 -2.92089 -3.55013 -2.50805 -0.364408 -0.752173 0.182441 -3.5333 
274 4.59054 2.90311 -19.1586 -3.57431 -2.89586 -2.51512 -0.38683 -0.0460408 0.839849 -3.53328 
275 0.584175 4.28962 -17.8813 -3.52979 -4.72411 -3.11352 -0.173659 -0.909286 0.201712 -3.53362 
276 0.53196 4.29697 -15.3252 -3.4936 -4.72926 -3.17414 -0.163246 -0.910732 0.171694 -3.53363 
277 0.83812 6.44755 -16.6007 -2.91663 -4.36546 -2.75294 -0.199697 -1.339 0.268407 -3.53367 
278 2.70226 4.71311 -16.6036 -2.88204 -3.54633 -2.57545 -0.372389 -0.761889 0.153942 -3.53332 
279 0.759747 6.45811 -14.0458 -2.87735 -4.35742 -2.79182 -0.18501 -1.33939 0.230037 -3.53373 
280 4.55586 2.95917 -16.6017 -3.54684 -2.88187 -2.58119 -0.410493 -0.0741652 0.82385 -3.5333 
281 2.40002 2.56763 -15.3257 -3.49658 -3.50992 -2.90904 -0.395151 -0.271118 0.311298 -3.52978 
282 2.36883 2.59698 -12.7703 -3.47362 -3.51083 -2.96017 -0.404953 -0.281432 0.298323 -3.5298 
283 2.64524 4.74636 -14.0479 -2.84676 -3.54395 -2.62715 -0.376556 -0.76929 0.129021 -3.53334 
284 4.52026 3.01472 -14.046 -3.51965 -2.8723 -2.63156 -0.430808 -0.0986676 0.810537 -3.53332 
285 0.479606 4.3036 -12.7701 -3.46268 -4.73204 -3.21938 -0.151071 -0.911761 0.144962 -3.53365 
286 0.427142 4.30951 -10.2159 -3.43711 -4.73367 -3.25238 -0.137562 -0.912504 0.121008 -3.53366 
287 0.681191 6.46755 -11.4916 -2.84506 -4.35052 -2.82004 -0.168991 -1.3397 0.195468 -3.53377 
288 2.58766 4.77876 -11.4932 -2.8156 -3.54347 -2.66597 -0.377408 -0.774897 0.107072 -3.53335 
289 0.602488 6.4759 -8.93806 -2.81922 -4.34522 -2.83996 -0.151976 -1.34001 0.163963 -3.5338 
290 4.48379 3.06973 -11.4913 -3.49381 -2.86718 -2.66916 -0.448104 -0.120105 0.799485 -3.53334 
291 2.33718 2.62587 -10.2157 -3.45184 -3.51341 -2.99794 -0.412032 -0.290116 0.287172 -3.52981 
292 2.3051 2.6543 -7.66177 -3.4317 -3.51779 -3.02477 -0.416759 -0.297561 0.277446 -3.52983 
293 2.52957 4.81031 -8.93915 -2.78861 -3.54502 -2.69425 -0.375431 -0.779165 0.0874604 -3.53336 
294 4.44647 3.12421 -8.93725 -3.46986 -2.86625 -2.69635 -0.46272 -0.1391 0.790227 -3.53335 
295 0.374591 4.3147 -7.66218 -3.41662 -4.73485 -3.2755 -0.123056 -0.913041 0.0992545 -3.53367 
296 0.321978 4.31919 -5.1089 -3.40085 -4.73597 -3.29047 -0.107813 -0.913428 0.0791391 -3.53368 
297 0.52367 6.48315 -6.38494 -2.79923 -4.3417 -2.85325 -0.134223 -1.34034 0.134791 -3.53383 
298 2.47101 4.84102 -6.38561 -2.76564 -3.54856 -2.71379 -0.371035 -0.782475 0.0695899 -3.53337 
299 0.44477 6.48933 -3.8321 -2.78458 -4.33998 -2.86105 -0.11593 -1.34075 0.107274 -3.53385 
300 4.40836 3.17816 -6.3837 -3.448 -2.86911 -2.71494 -0.474952 -0.156248 0.782322 -3.53336 
301 2.27262 2.68227 -5.10829 -3.41341 -3.52395 -3.04249 -0.41944 -0.304114 0.268777 -3.52984 
302 2.23976 2.70979 -2.55509 -3.39705 -3.53179 -3.05238 -0.420298 -0.310076 0.260829 -3.52984 
303 2.41202 4.87089 -3.83241 -2.74646 -3.55399 -2.72595 -0.364543 -0.785139 0.0529228 -3.53337 
304 4.36949 3.23156 -3.83049 -3.42833 -2.87541 -2.72622 -0.485027 -0.172085 0.775373 -3.53336 
305 0.269326 4.32298 -2.55587 -3.38951 -4.73721 -3.29848 -0.0920234 -0.913713 0.060144 -3.53369 
306 0.365817 6.49445 -1.27942 -2.7749 -4.34003 -2.86409 -0.0972463 -1.34126 0.0807968 -3.53386 
307 2.35262 4.89993 -1.2794 -2.73093 -3.56118 -2.73159 -0.35619 -0.78742 0.0369756 -3.53337 
308 4.32989 3.2844 -1.27747 -3.41088 -2.88484 -2.73106 -0.493096 -0.187076 0.769034 -3.53337 
309 2.43777 7.09211 -0.002978 -2.20915 -3.36002 -2.40145 -0.317017 -1.19274 -0.177338 -3.53293 
310 0.436088 8.66942 -0.00311578 -2.24536 -4.0141 -2.49685 -0.098416 -1.7291 0.0897239 -3.53361 