ITEM: TIMESTEP
0
ITEM: NUMBER OF ATOMS
37664
ITEM: BOX BOUNDS ff ff ff
-100 100
-100 100
-156.15 156.15
ITEM: ATOMS id x y z v_peratom_sxx v_peratom_syy v_peratom_szz v_peratom_sxy v_peratom_sxz v_peratom_syz c_atomPE 
1 -0.00297276 -0.00111039 -0.00269291 -5.18276 -5.16876 -9.54409 -0.00257495 0.0197317 -0.0467726 -3.51524 
2 -0.00331015 -0.000938356 2.55047 -5.17842 -5.16637 -9.53763 -0.0036479 0.0219462 -0.0455794 -3.51527 
3 -0.00361242 -0.000757664 5.10378 -5.16999 -5.16006 -9.52108 -0.00468477 0.0240607 -0.0439056 -3.51534 
4 -0.00387753 -0.000566307 7.65737 -5.15712 -5.14947 -9.49366 -0.00565835 0.0260009 -0.0417737 -3.51547 
5 -0.00410389 -0.000362734 10.2114 -5.13914 -5.13387 -9.45395 -0.00654311 0.0277131 -0.0392194 -3.51566 
6 -0.00429014 -0.000146243 12.7661 -5.11492 -5.11211 -9.39973 -0.00731777 0.0291671 -0.0363025 -3.51591 
7 -0.00443484 8.24525e-05 15.3216 -5.08284 -5.08253 -9.32789 -0.00796535 0.0303532 -0.0331143 -3.51624 
8 -0.00453619 0.000320625 17.8783 -5.0406 -5.04279 -9.23438 -0.00847241 0.0312769 -0.0297805 -3.51667 
9 -0.00459178 0.000563091 20.4363 -4.98503 -4.98968 -9.1141 -0.00882903 0.0319569 -0.0264583 -3.51722 
10 -0.00459832 0.000802057 22.9961 -4.91193 -4.9189 -8.96119 -0.00902989 0.0324262 -0.0233256 -3.5179 
11 -0.00455157 0.00102739 25.5581 -4.81587 -4.82497 -8.76966 -0.00907635 0.0327369 -0.0205626 -3.51875 
12 -0.00444629 0.00122732 28.1227 -4.69054 -4.70148 -8.53516 -0.00897859 0.0329611 -0.0183266 -3.51978 
13 -0.00427631 0.00138956 30.6903 -4.53014 -4.54259 -8.25807 -0.00875556 0.0331862 -0.0167253 -3.52097 
14 -0.00403483 0.00150233 33.2612 -4.33322 -4.34676 -7.94713 -0.00843075 0.0334996 -0.0158007 -3.52226 
15 -0.00371464 0.00155475 35.8352 -4.10774 -4.12193 -7.61987 -0.00802456 0.0339717 -0.0155399 -3.52353 
16 -0.0033085 0.00153618 38.4121 -3.8698 -3.88419 -7.29464 -0.00754669 0.0346325 -0.0159096 -3.52462 
17 -0.0028089 0.00143414 40.9914 -3.631 -3.64512 -6.97787 -0.00698877 0.0354577 -0.0169027 -3.52551 
18 -0.00220494 0.00123052 43.5729 -3.39231 -3.40559 -6.65679 -0.00630476 0.0364542 -0.0186003 -3.52623 
19 -0.00147679 0.000896159 46.1568 -3.12851 -3.14004 -6.29476 -0.00533443 0.0376555 -0.0211492 -3.52697 
20 -0.000604507 0.000386198 48.7435 -2.74723 -2.75371 -5.85683 -0.0029854 0.0380971 -0.0244796 -3.52784 
21 5.95933e-07 -4.11185e-08 51.3317 -1.92309 -1.92259 -4.91855 0.000223447 -0.00195796 0.00131116 -3.53203 
22 4.01304e-07 -1.42881e-06 53.9138 -0.851945 -0.85196 -8.91776 -1.74826e-06 -3.12086e-05 -7.35794e-05 -3.48168 
23 8.71386e-07 -1.98378e-06 56.3885 1.68558 1.68558 1.87682 -1.78663e-05 2.65232e-05 -1.30295e-07 -2.55581 
24 -1.23087e-07 -1.12453e-06 -53.8876 -2.6069 -2.60692 -6.54965 -1.482e-05 8.08854e-06 -3.81697e-05 -3.40183 
25 1.02659e-07 -1.55837e-06 -51.3239 -2.07943 -2.07991 -5.58586 -0.000556192 -0.000991066 0.00242622 -3.52874 
26 0.000317102 -0.000669896 -48.7464 -2.71225 -2.70627 -6.17077 0.00673948 0.0194107 -0.041951 -3.52631 
27 0.00075902 -0.00155693 -46.1651 -3.04156 -3.03194 -6.37419 0.0121306 0.0189794 -0.0376862 -3.52669 
28 0.00105815 -0.00218475 -43.5829 -3.32192 -3.31064 -6.63431 0.0135894 0.0201059 -0.0333454 -3.52625 
29 0.00126081 -0.00261423 -41.0017 -3.57578 -3.56307 -6.92062 0.0140098 0.0209302 -0.0299764 -3.52566 
30 0.0013813 -0.00289225 -38.4222 -3.82414 -3.81008 -7.22659 0.0139167 0.0211337 -0.027634 -3.52483 
31 0.0014287 -0.0030497 -35.8449 -4.06868 -4.05323 -7.54881 0.0135062 0.0206136 -0.0263128 -3.52378 
32 0.00140922 -0.00310853 -33.2702 -4.30047 -4.28357 -7.87668 0.0128596 0.0193787 -0.0260113 -3.52255 
33 0.00132564 -0.00308633 -30.6987 -4.50677 -4.48839 -8.19298 0.0120099 0.0175496 -0.0266929 -3.52127 
34 0.00117772 -0.00299908 -28.1303 -4.6791 -4.65932 -8.48072 0.0109736 0.0153689 -0.0282691 -3.52005 
35 0.000964403 -0.00286264 -25.565 -4.81624 -4.79527 -8.72922 0.00977235 0.0131681 -0.0305864 -3.51897 
36 0.000686766 -0.00269298 -23.0024 -4.92185 -4.90003 -8.93525 0.00844648 0.0112887 -0.0334181 -3.51805 
37 0.000350219 -0.00250514 -20.4422 -5.00138 -4.97914 -9.10086 0.00705361 0.00999225 -0.0364885 -3.51731 
38 -3.51237e-05 -0.00231172 -17.8839 -5.0603 -5.03808 -9.23088 0.00565608 0.00941229 -0.0395141 -3.51671 
39 -0.000455659 -0.00212163 -15.3271 -5.10333 -5.08155 -9.33092 0.00430547 0.00955796 -0.042246 -3.51625 
40 -0.000896298 -0.0019396 -12.7715 -5.13424 -5.11323 -9.40635 0.00303101 0.0103499 -0.0444988 -3.5159 
41 -0.00134249 -0.00176656 -10.2168 -5.15589 -5.13591 -9.46181 0.00183577 0.0116649 -0.046163 -3.51564 
42 -0.00178173 -0.00160063 -7.66272 -5.17037 -5.15162 -9.50097 0.000701638 0.0133721 -0.0471991 -3.51545 
43 -0.00220424 -0.00143841 -5.10914 -5.17912 -5.16178 -9.52659 -0.000398901 0.0153527 -0.0476194 -3.51533 
44 -0.00260292 -0.00127614 -2.55585 -5.18307 -5.16731 -9.54057 -0.00148858 0.0175037 -0.0474632 -3.51526 
45 0.0929955 2.15909 1.27286 -4.05168 -5.13205 -3.83723 -0.0552069 -0.431556 -0.00106727 -3.5291 
46 0.0664897 2.16023 3.82604 -4.0482 -5.13177 -3.82796 -0.0426668 -0.430978 -0.0100928 -3.52911 
47 0.0400236 2.16104 6.37944 -4.0471 -5.12964 -3.81055 -0.0299602 -0.430425 -0.0192232 -3.52913 
48 0.0136078 2.16151 8.93322 -4.04843 -5.1253 -3.78418 -0.017207 -0.429926 -0.0287575 -3.52915 
49 -0.0127475 2.16166 11.4875 -4.05219 -5.1182 -3.7474 -0.00455264 -0.429488 -0.039034 -3.52918 
50 -0.0390317 2.16147 14.0425 -4.05831 -5.10743 -3.69814 0.00782282 -0.429093 -0.0504379 -3.52922 
51 -0.065234 2.16095 16.5985 -4.06652 -5.09164 -3.63363 0.0196918 -0.428709 -0.0633959 -3.52927 
52 -0.0913432 2.16009 19.1557 -4.07614 -5.06882 -3.55028 0.0307624 -0.428286 -0.0783425 -3.52933 
53 -0.117348 2.15891 21.7145 -4.08576 -5.03605 -3.4438 0.0406628 -0.42776 -0.095627 -3.52941 
54 -0.143238 2.15739 24.2752 -4.09254 -4.98905 -3.30943 0.0489417 -0.427051 -0.115312 -3.52952 
55 -0.169005 2.15558 26.8382 -4.09127 -4.92187 -3.14273 0.0551125 -0.426055 -0.136799 -3.52966 
56 -0.194639 2.15352 29.4041 -4.07315 -4.82683 -2.94127 0.0587954 -0.424629 -0.158307 -3.52986 
57 -0.220126 2.15129 31.973 -4.02551 -4.69584 -2.7072 0.0599999 -0.422561 -0.176602 -3.53013 
58 -0.245439 2.14897 34.5453 -3.93504 -4.52455 -2.44957 0.0594612 -0.41954 -0.188156 -3.53048 
59 -0.270531 2.14662 37.1208 -3.79653 -4.31834 -2.18257 0.0586356 -0.415164 -0.192718 -3.53089 
60 -0.295346 2.14414 39.6989 -3.61848 -4.09183 -1.91762 0.0589893 -0.409123 -0.195413 -3.53129 
61 -0.31985 2.14143 42.2793 -3.4129 -3.85562 -1.65487 0.0611672 -0.401644 -0.202475 -3.53165 
62 -0.344074 2.13841 44.8618 -3.18637 -3.60636 -1.38259 0.0644108 -0.393316 -0.220677 -3.53194 
63 -0.368168 2.13527 47.4463 -2.90924 -3.29391 -1.09672 0.0655295 -0.386126 -0.242093 -3.53224 
64 -0.392512 2.13371 50.032 -2.42764 -2.80045 -0.48698 0.058811 -0.408997 -0.208492 -3.53325 
65 -0.418483 2.1304 52.6263 -1.76575 -2.00544 -0.561317 0.0454923 -0.308956 -0.729943 -3.52457 
66 -0.44812 2.14653 55.1778 6.97663 7.73844 2.43089 0.0330231 -0.597318 1.7702 -3.02528 
67 0.649859 2.05055 -55.162 1.38946 0.842407 -0.678324 -0.188251 -0.099195 1.20762 -3.26036 
68 0.633027 2.08274 -52.6122 -1.11217 -2.21878 -0.457822 -0.374523 -0.489252 -0.161431 -3.53567 
69 0.607028 2.08678 -50.0319 -2.00574 -2.56415 -0.884712 -0.163158 -0.421608 0.0768074 -3.53399 
70 0.58218 2.088 -47.4535 -2.65199 -3.07915 -1.22937 -0.123921 -0.386578 0.149172 -3.5329 
71 0.558031 2.09134 -44.8717 -3.07507 -3.448 -1.38849 -0.101076 -0.383438 0.194349 -3.53224 
72 0.533866 2.09554 -42.2901 -3.3746 -3.73279 -1.61669 -0.090861 -0.388743 0.207366 -3.53181 
73 0.509437 2.10002 -39.7097 -3.61838 -3.98801 -1.86606 -0.0884971 -0.395684 0.214304 -3.53138 
74 0.484678 2.10465 -37.1312 -3.82048 -4.22509 -2.12801 -0.092098 -0.402319 0.218401 -3.53095 
75 0.459606 2.10941 -34.5553 -3.97793 -4.43895 -2.39564 -0.100066 -0.408194 0.217407 -3.53052 
76 0.434274 2.11429 -31.9824 -4.08657 -4.61989 -2.65709 -0.110186 -0.413476 0.2087 -3.53015 
77 0.408727 2.11924 -29.4128 -4.14973 -4.76277 -2.89887 -0.120005 -0.418293 0.192324 -3.52986 
78 0.382993 2.12415 -26.8464 -4.17769 -4.86977 -3.11099 -0.127639 -0.422534 0.170891 -3.52963 
79 0.35709 2.12891 -24.2829 -4.18226 -4.94729 -3.2892 -0.132131 -0.426028 0.147496 -3.52947 
80 0.331033 2.13344 -21.7218 -4.17319 -5.00255 -3.434 -0.133275 -0.428697 0.124453 -3.52935 
81 0.304842 2.13767 -19.1629 -4.15729 -5.04178 -3.54871 -0.131305 -0.430588 0.103089 -3.52927 
82 0.278538 2.14157 -16.6056 -4.13891 -5.06973 -3.63773 -0.126657 -0.431828 0.0839672 -3.52921 
83 0.252144 2.14512 -14.0497 -4.12058 -5.08981 -3.7055 -0.119828 -0.432566 0.0671644 -3.52917 
84 0.225681 2.14832 -11.4947 -4.10363 -5.10431 -3.75598 -0.111302 -0.432933 0.0524864 -3.52913 
85 0.199171 2.15116 -8.94045 -4.0887 -5.1148 -3.79239 -0.101503 -0.433022 0.0396068 -3.52911 
86 0.172632 2.15366 -6.38674 -4.07601 -5.12229 -3.81722 -0.0907756 -0.432887 0.0281561 -3.5291 
87 0.14608 2.15581 -3.83339 -4.06561 -5.12743 -3.83227 -0.0793744 -0.432568 0.0177732 -3.5291 
88 0.11953 2.15762 -1.28024 -4.05749 -5.13061 -3.83873 -0.0674768 -0.432106 0.00812998 -3.5291 
89 0.215754 4.32583 -0.00416439 -3.38707 -4.7374 -3.29929 -0.0779242 -0.911395 0.040141 -3.5337 
90 0.285766 6.49829 1.27199 -2.77275 -4.34148 -2.86167 -0.0809569 -1.33962 0.0546182 -3.53387 
91 2.20564 2.73654 -0.00291358 -3.38755 -3.53878 -3.0559 -0.421161 -0.314507 0.251687 -3.52984 
92 2.17197 2.76316 2.5502 -3.37429 -3.55004 -3.05184 -0.418894 -0.319818 0.244476 -3.52984 
93 2.29181 4.92785 1.27259 -2.72219 -3.56837 -2.73231 -0.348153 -0.787875 0.0211335 -3.53337 
94 4.28855 3.33633 1.27477 -3.39997 -2.89583 -2.73069 -0.50092 -0.200881 0.761949 -3.53337 
95 0.162964 4.32826 2.5488 -3.38293 -4.73944 -3.29468 -0.0616407 -0.911397 0.0220948 -3.5337 
96 0.110207 4.33 5.10191 -3.38301 -4.74171 -3.28407 -0.0451343 -0.911446 0.00385461 -3.5337 
97 0.206674 6.50131 3.82475 -2.77159 -4.34536 -2.85567 -0.0618152 -1.3403 0.0286243 -3.53387 
98 2.23158 4.95524 3.82565 -2.71297 -3.5792 -2.72574 -0.336481 -0.789867 0.00549237 -3.53337 
99 0.127625 6.50328 6.3777 -2.77532 -4.35092 -2.84517 -0.0425744 -1.34122 0.00202365 -3.53386 
100 4.24746 3.38806 3.82783 -3.38633 -2.91132 -2.72342 -0.505179 -0.215201 0.756064 -3.53337 
101 2.13799 2.78931 5.10345 -3.36318 -3.56269 -3.041 -0.414985 -0.325255 0.237172 -3.52984 
102 2.1037 2.81497 7.65699 -3.35434 -3.57661 -3.02286 -0.409379 -0.331054 0.229482 -3.52983 
103 2.17104 4.98178 6.37891 -2.70751 -3.5915 -2.71307 -0.323196 -0.792134 -0.0107307 -3.53337 
104 4.2057 3.43919 6.3811 -3.37515 -2.92955 -2.70996 -0.507393 -0.229839 0.749925 -3.53337 
105 0.0575013 4.33105 7.6553 -3.38748 -4.74409 -3.26699 -0.0285159 -0.911579 -0.0150305 -3.5337 
106 0.00486684 4.33142 10.2091 -3.39658 -4.74639 -3.24253 -0.0119088 -0.911808 -0.0350506 -3.5337 
107 0.0486434 6.50419 8.93097 -2.78422 -4.35814 -2.82962 -0.023341 -1.34243 -0.0257651 -3.53384 
108 2.1102 5.00745 8.93252 -2.70604 -3.6052 -2.69369 -0.308272 -0.794894 -0.0280222 -3.53337 
109 -0.0302419 6.50403 11.4847 -2.7987 -4.36696 -2.80811 -0.00423291 -1.34394 -0.0553782 -3.53381 
110 4.1633 3.4897 8.9347 -3.36658 -2.95051 -2.68965 -0.507398 -0.245181 0.743211 -3.53336 
111 2.06911 2.84015 10.211 -3.3479 -3.59165 -2.99644 -0.401958 -0.337457 0.22108 -3.52982 
112 2.03424 2.86481 12.7656 -3.34397 -3.60754 -2.96027 -0.392541 -0.344727 0.211592 -3.52981 
113 2.04909 5.03223 11.4866 -2.70889 -3.62016 -2.66658 -0.291632 -0.798378 -0.0469276 -3.53336 
114 4.12025 3.53957 11.4888 -3.36082 -2.97426 -2.66144 -0.504939 -0.261642 0.735551 -3.53336 
115 -0.0476768 4.33109 12.7635 -3.41061 -4.74823 -3.20929 0.00454439 -0.91212 -0.0567499 -3.53369 
116 -0.100109 4.33006 15.3187 -3.42991 -4.749 -3.16527 0.0206714 -0.912474 -0.0807286 -3.53368 
117 -0.109002 6.5028 14.039 -2.81929 -4.37718 -2.77929 0.0146125 -1.34577 -0.0875217 -3.53378 
118 1.98771 5.0561 14.0414 -2.71642 -3.63612 -2.63023 -0.273152 -0.802847 -0.0680678 -3.53335 
119 -0.187606 6.50049 16.5941 -2.84658 -4.38842 -2.74122 0.033033 -1.34788 -0.122965 -3.53373 
120 4.07657 3.58877 14.0436 -3.35803 -3.00077 -2.62382 -0.499672 -0.279686 0.726494 -3.53335 
121 1.9991 2.88894 15.321 -3.3426 -3.62384 -2.91231 -0.380886 -0.353161 0.200578 -3.52979 
122 1.96368 2.91252 17.8774 -3.34363 -3.63977 -2.84988 -0.366717 -0.36309 0.187542 -3.52977 
123 1.92609 5.07903 16.597 -2.72903 -3.65261 -2.5826 -0.252678 -0.8086 -0.0921365 -3.53334 
124 4.03225 3.63725 16.5992 -3.35833 -3.02992 -2.57479 -0.49118 -0.299839 0.71549 -3.53334 
125 -0.152407 4.32833 17.8748 -3.45469 -4.74768 -3.10784 0.0362562 -0.912797 -0.107617 -3.53368 
126 -0.204548 4.3259 20.4323 -3.48479 -4.74253 -3.03353 0.0510199 -0.912974 -0.13799 -3.53367 
127 -0.266019 6.49709 19.1502 -2.88102 -4.39983 -2.69126 0.0508399 -1.35014 -0.162486 -3.53368 
128 1.86425 5.10098 19.1538 -2.74693 -3.66878 -2.52105 -0.230061 -0.815972 -0.119858 -3.53332 
129 -0.344205 6.49259 21.7076 -2.92264 -4.40979 -2.62586 0.0678179 -1.35233 -0.206735 -3.53361 
130 3.98732 3.68497 19.1559 -3.36162 -3.06125 -2.51188 -0.479011 -0.322679 0.701888 -3.53333 
131 1.92801 2.93552 20.4352 -3.34648 -3.65396 -2.76971 -0.349764 -0.374858 0.171963 -3.52974 
132 1.89209 2.95793 22.9947 -3.34977 -3.66415 -2.66798 -0.329856 -0.388731 0.153404 -3.5297 
133 1.8022 5.12193 21.712 -2.76995 -3.68313 -2.44238 -0.205215 -0.825312 -0.151868 -3.53329 
134 3.94177 3.73191 21.7141 -3.36737 -3.09376 -2.43209 -0.462773 -0.348773 0.684975 -3.5333 
135 -0.25651 4.32278 22.9914 -3.51921 -4.73074 -2.93812 0.0645939 -0.912852 -0.17218 -3.53367 
136 -0.308273 4.31901 25.5525 -3.55528 -4.70787 -2.81675 0.0764922 -0.912258 -0.209906 -3.53368 
137 -0.422125 6.48704 24.2667 -2.97048 -4.41542 -2.54044 0.0837144 -1.35408 -0.255933 -3.53355 
138 1.73998 5.14186 24.272 -2.79701 -3.69316 -2.34293 -0.178239 -0.836903 -0.188463 -3.53326 
139 -0.499745 6.4805 26.8278 -3.02173 -4.41179 -2.4294 0.098197 -1.35492 -0.309346 -3.53349 
140 3.89563 3.77802 24.274 -3.37416 -3.12543 -2.33208 -0.442301 -0.378501 0.664124 -3.53327 
141 1.85595 2.97974 25.5563 -3.35057 -3.66653 -2.54068 -0.307084 -0.404696 0.13177 -3.52966 
142 1.81965 3.001 28.1204 -3.34343 -3.65513 -2.38434 -0.282058 -0.422047 0.107797 -3.5296 
143 1.67761 5.16081 26.8342 -2.82535 -3.69484 -2.21897 -0.149626 -0.850765 -0.229114 -3.53321 
144 3.84896 3.8233 26.8361 -3.37901 -3.15258 -2.20834 -0.417926 -0.411669 0.639116 -3.53322 
145 -0.359822 4.31466 28.1161 -3.58738 -4.66714 -2.66461 0.0861088 -0.911025 -0.249677 -3.53372 
146 -0.411144 4.30988 30.6826 -3.60521 -4.59906 -2.47851 0.0928173 -0.908969 -0.288118 -3.5338 
147 -0.577035 6.47314 29.3915 -3.07032 -4.391 -2.28677 0.11076 -1.35438 -0.364496 -3.53346 
148 1.61517 5.17888 29.3989 -2.84921 -3.68196 -2.06735 -0.120574 -0.86623 -0.271703 -3.53316 
149 -0.653975 6.46521 31.9581 -3.10504 -4.34124 -2.10794 0.120626 -1.35211 -0.416426 -3.53349 
150 3.80187 3.8678 29.4007 -3.37627 -3.16887 -2.05772 -0.390831 -0.446809 0.610759 -3.53316 
151 1.78327 3.02179 30.6874 -3.31915 -3.62109 -2.19737 -0.256225 -0.438807 0.0837715 -3.52955 
152 1.74696 3.04228 33.2577 -3.26452 -3.5532 -1.98188 -0.232004 -0.451448 0.0639182 -3.52954 
153 1.55276 5.1963 31.9667 -2.85819 -3.64543 -1.88658 -0.0932695 -0.881213 -0.311643 -3.5331 
154 3.75455 3.91166 31.9683 -3.35613 -3.16421 -1.87831 -0.363335 -0.480329 0.58174 -3.5331 
155 -0.462219 4.30487 33.2524 -3.59304 -4.49234 -2.25972 0.0962827 -0.905708 -0.32003 -3.53396 
156 -0.512994 4.29985 35.8256 -3.53315 -4.33808 -2.01698 0.0969664 -0.90039 -0.340878 -3.53423 
157 -0.730534 6.45712 34.5283 -3.10822 -4.24707 -1.89329 0.126855 -1.34761 -0.458088 -3.53362 
158 1.49054 5.21341 34.5377 -2.8362 -3.57314 -1.67843 -0.0707477 -0.891545 -0.341966 -3.53307 
159 -0.806633 6.44922 37.1021 -3.05851 -4.09385 -1.65295 0.12904 -1.33958 -0.483847 -3.53389 
160 3.70733 3.95511 34.5393 -3.30354 -3.1246 -1.67122 -0.338676 -0.506418 0.557033 -3.53307 
161 1.71093 3.06268 35.8313 -3.1657 -3.44139 -1.74505 -0.212133 -0.456163 0.052746 -3.5296 
162 1.67533 3.08309 38.408 -3.01719 -3.28385 -1.49763 -0.197807 -0.452648 0.0498314 -3.52976 
163 1.42879 5.2306 37.1122 -2.7643 -3.45234 -1.4498 -0.0557634 -0.892018 -0.356778 -3.53313 
164 3.66058 3.99843 37.1136 -3.20048 -3.0357 -1.44309 -0.319717 -0.519729 0.541784 -3.53312 
165 -0.563376 4.29488 38.402 -3.41666 -4.13862 -1.76541 0.0964338 -0.891868 -0.352225 -3.53458 
166 -0.613266 4.28978 40.981 -3.25112 -3.90995 -1.51732 0.0968216 -0.879658 -0.363137 -3.53493 
167 -0.882139 6.44161 39.6791 -2.94424 -3.88119 -1.40673 0.128345 -1.32628 -0.496857 -3.53426 
168 1.36774 5.24806 39.6897 -2.63198 -3.27832 -1.2125 -0.0487652 -0.881438 -0.359409 -3.5333 
169 -0.956941 6.43399 42.2584 -2.77378 -3.62909 -1.17218 0.1274 -1.30772 -0.509977 -3.53462 
170 3.61456 4.04178 39.6909 -3.03678 -2.89251 -1.20625 -0.306923 -0.521559 0.534577 -3.53329 
171 1.64018 3.10342 40.9872 -2.82743 -3.08945 -1.24732 -0.187413 -0.446257 0.0471005 -3.53 
172 1.60539 3.12353 43.5685 -2.60641 -2.8662 -0.991736 -0.178488 -0.443635 0.0361392 -3.53027 
173 1.30744 5.26564 42.2695 -2.44569 -3.06023 -0.976616 -0.0469944 -0.866393 -0.364364 -3.53355 
174 3.56922 4.08506 42.2706 -2.81991 -2.70345 -0.972458 -0.298164 -0.521811 0.524514 -3.53354 
175 -0.662646 4.28437 43.562 -3.04771 -3.66236 -1.272 0.0992281 -0.864667 -0.382129 -3.53524 
176 -0.711685 4.27858 46.1444 -2.81828 -3.39357 -1.00931 0.102862 -0.849011 -0.414765 -3.5355 
177 -1.03111 6.42616 44.8391 -2.55408 -3.3444 -0.955757 0.127531 -1.28631 -0.528579 -3.53496 
178 1.24775 5.28317 44.8508 -2.21262 -2.80278 -0.743757 -0.0487725 -0.855445 -0.383244 -3.53387 
179 -1.10501 6.41843 47.4202 -2.29188 -3.01543 -0.768938 0.129645 -1.26655 -0.543036 -3.53529 
180 3.52435 4.12819 44.8518 -2.55526 -2.47591 -0.747559 -0.290863 -0.529462 0.502967 -3.53384 
181 1.57076 3.14339 46.1515 -2.35877 -2.61646 -0.713488 -0.170729 -0.452407 0.00850984 -3.53054 
182 1.53615 3.16341 48.7363 -2.08482 -2.35853 -0.342676 -0.18221 -0.474612 -0.0315803 -3.53016 
183 1.18822 5.30067 47.433 -1.93921 -2.50339 -0.512499 -0.0625618 -0.861305 -0.428729 -3.53412 
184 3.47968 4.17124 47.4337 -2.23693 -2.21944 -0.539632 -0.28528 -0.555144 0.45848 -3.53405 
185 -0.760867 4.27346 48.7284 -2.59807 -3.07065 -0.661647 0.096808 -0.83798 -0.422342 -3.53518 
186 -0.811621 4.26877 51.3169 -1.98835 -2.35077 0.314432 0.0838907 -0.842573 -0.652942 -3.53805 
187 -1.17889 6.41384 50.0002 -2.05336 -2.5409 -0.32848 0.0840629 -1.27294 -0.621147 -3.53574 
188 1.12775 5.31799 50.0156 -1.56804 -2.07728 -0.0177201 -0.109439 -0.942483 -0.596045 -3.53484 
189 -1.25707 6.40546 52.5877 -1.61248 -2.48688 0.643248 0.17586 -1.31636 -0.612979 -3.53281 
190 3.43505 4.21346 50.0156 -1.75816 -1.85187 -0.0369018 -0.308719 -0.666096 0.312438 -3.5349 
191 1.50027 3.18358 51.3264 -1.43159 -1.70112 0.659025 -0.172616 -0.549149 -0.132894 -3.53272 
192 1.46587 3.20964 53.9052 0.0267056 0.953992 -0.795858 0.566303 -0.560991 0.138961 -3.37565 
193 1.06597 5.33731 52.6041 -1.24916 -1.89856 0.441501 -0.236991 -0.801305 -0.410814 -3.52779 
194 3.38747 4.26008 52.6041 -1.41012 -1.71363 0.389834 -0.390647 -0.639416 0.58737 -3.52746 
195 -0.866323 4.2769 53.8949 -0.050838 -0.206132 -1.18039 0.0793797 -1.26166 1.02745 -3.38132 
196 1.3298 4.1174 -56.3442 5.06942 2.90557 1.60241 -1.25474 -0.27389 0.110266 -2.79034 
197 -1.33605 6.40133 55.1665 4.18002 2.79748 1.28996 0.319915 -1.5232 0.197897 -3.26107 
198 1.00488 5.36129 55.1754 5.64213 6.63187 2.70777 0.369883 -0.636452 -0.0325909 -3.15047 
199 1.98371 6.26223 -55.1334 6.93989 9.11552 2.92917 0.134184 -0.847908 -0.525671 -3.02309 
200 3.34328 4.30996 55.1754 5.53065 7.35772 2.86914 0.118696 -0.27861 0.562651 -3.15115 
201 2.87095 2.09325 -56.362 4.04253 6.0065 1.88102 -3.16454 0.252654 0.341799 -2.79939 
202 2.84551 2.1252 -53.8874 0.165016 0.763293 -3.02653 -0.9821 -0.732815 -0.162362 -3.51266 
203 3.53831 4.21674 -55.1525 6.03166 6.27391 1.75933 0.302435 -1.2195 -0.0444725 -3.1433 
204 5.07312 2.13635 -55.1525 6.04997 7.03887 2.00313 0.446061 -0.528116 0.0805404 -3.14511 
205 1.29262 4.16451 -53.8815 0.861234 -0.348234 -3.67516 -0.408862 -0.573886 0.839005 -3.51412 
206 1.24176 4.17585 -51.3147 -1.28737 -1.9116 -0.379133 -0.214941 -0.881741 0.220309 -3.53905 
207 1.90264 6.26187 -52.5941 -0.91818 -1.4569 -0.573178 -0.184217 -1.16811 0.820004 -3.52792 
208 3.4607 4.22944 -52.6036 -0.749167 -0.925953 0.0952686 -0.677552 -0.496207 0.19128 -3.53019 
209 1.82403 6.27282 -50.0101 -1.64374 -2.33236 -0.271717 -0.195171 -1.27279 0.431814 -3.53675 
210 5.01221 2.17771 -52.6036 -1.34208 -0.348678 0.0544509 -0.502603 0.0190791 0.991446 -3.52953 
211 2.80522 2.14769 -51.32 -1.10386 -0.947233 -0.116897 -0.278322 -0.334357 0.262359 -3.53415 
212 2.77266 2.17448 -48.7406 -1.97898 -1.84172 -0.558719 -0.291881 -0.205268 0.340874 -3.53087 
213 3.40036 4.25787 -50.02 -1.43561 -1.65762 -0.148919 -0.409936 -0.699776 0.288727 -3.53496 
214 4.971 2.23184 -50.02 -1.8485 -1.27616 -0.121079 -0.296894 0.0295944 0.83711 -3.535 
215 1.1901 4.18031 -48.7356 -2.18922 -2.76363 -0.802439 -0.180667 -0.833005 0.279284 -3.53641 
216 1.14095 4.18615 -46.1544 -2.65089 -3.19541 -0.992704 -0.162498 -0.820728 0.398837 -3.53606 
217 1.74946 6.27852 -47.4308 -2.11182 -2.8359 -0.691311 -0.213444 -1.23046 0.544277 -3.5359 
218 3.34582 4.28735 -47.4413 -1.90606 -2.20938 -0.57807 -0.300926 -0.624563 0.339706 -3.53415 
219 1.67611 6.29017 -44.8499 -2.48346 -3.19256 -0.879278 -0.199888 -1.23483 0.60327 -3.53536 
220 4.93556 2.2843 -47.4405 -2.33011 -1.78881 -0.552771 -0.21111 0.120031 0.866317 -3.5342 
221 2.74312 2.20158 -46.1597 -2.37833 -2.26948 -0.753187 -0.229922 -0.146808 0.394592 -3.53075 
222 2.71526 2.2301 -43.5781 -2.69316 -2.59058 -0.964383 -0.212828 -0.137275 0.414753 -3.53038 
223 3.29292 4.31944 -44.8609 -2.24682 -2.57273 -0.732397 -0.260065 -0.61273 0.374673 -3.53393 
224 4.90324 2.33726 -44.8598 -2.67103 -2.14228 -0.73364 -0.176058 0.15546 0.897448 -3.53393 
225 1.09232 4.19453 -43.5727 -2.99116 -3.51443 -1.2207 -0.14867 -0.829897 0.425119 -3.53554 
226 1.04344 4.20367 -40.9918 -3.25212 -3.78895 -1.46141 -0.145565 -0.844232 0.432372 -3.5351 
227 1.60281 6.30357 -42.2691 -2.7674 -3.49797 -1.10625 -0.19891 -1.25351 0.619396 -3.53485 
228 3.24078 4.35303 -42.2801 -2.52222 -2.86796 -0.932312 -0.242669 -0.61661 0.392126 -3.53361 
229 1.5289 6.31769 -39.6895 -2.97912 -3.76453 -1.34972 -0.205617 -1.27383 0.623437 -3.5344 
230 4.87229 2.39116 -42.279 -2.95662 -2.42313 -0.93962 -0.164906 0.165583 0.922477 -3.5336 
231 2.68779 2.25941 -40.9971 -2.95002 -2.85131 -1.19399 -0.209514 -0.136806 0.428776 -3.53007 
232 2.66027 2.28936 -38.4177 -3.1636 -3.06607 -1.43536 -0.213996 -0.137531 0.440307 -3.52982 
233 3.18872 4.38772 -39.7004 -2.74045 -3.10728 -1.15588 -0.237015 -0.623088 0.40234 -3.53334 
234 4.84178 2.44607 -39.6992 -3.19428 -2.64017 -1.1635 -0.165375 0.168959 0.944214 -3.53333 
235 0.994034 4.21314 -38.4126 -3.45224 -4.03282 -1.71168 -0.150059 -0.858105 0.433948 -3.53468 
236 0.944063 4.22288 -35.8358 -3.59326 -4.24264 -1.96631 -0.159354 -0.869663 0.428946 -3.5343 
237 1.45421 6.33236 -37.1121 -3.12162 -3.98766 -1.60122 -0.216362 -1.29105 0.618645 -3.53399 
238 3.1365 4.42339 -37.1226 -2.90219 -3.29059 -1.38934 -0.240367 -0.631047 0.404368 -3.53315 
239 1.37882 6.34758 -34.5378 -3.19578 -4.15623 -1.84712 -0.226971 -1.30458 0.600098 -3.53368 
240 4.81144 2.502 -37.1214 -3.38175 -2.79623 -1.39602 -0.175744 0.167364 0.958239 -3.53314 
241 2.63264 2.31992 -35.8406 -3.33328 -3.23495 -1.68096 -0.22571 -0.140879 0.446056 -3.52964 
242 2.60488 2.35099 -33.2664 -3.45474 -3.35561 -1.92059 -0.24448 -0.150127 0.442174 -3.52955 
243 3.08406 4.45993 -34.5477 -3.00539 -3.41644 -1.61919 -0.252111 -0.643673 0.392967 -3.53306 
244 4.78122 2.55882 -34.5464 -3.51407 -2.8932 -1.62527 -0.196149 0.155826 0.959458 -3.53305 
245 0.893612 4.23287 -33.262 -3.67463 -4.40946 -2.21398 -0.170182 -0.879018 0.413353 -3.534 
246 0.842774 4.24303 -30.6916 -3.70384 -4.53054 -2.44123 -0.179598 -0.886834 0.386137 -3.5338 
247 1.30284 6.36321 -31.9671 -3.21157 -4.26823 -2.07125 -0.234441 -1.31531 0.565499 -3.5335 
248 3.03132 4.49704 -31.9761 -3.05488 -3.49191 -1.83285 -0.270596 -0.661828 0.366988 -3.53306 
249 1.22637 6.37891 -29.3998 -3.18691 -4.33338 -2.2626 -0.237725 -1.32368 0.518408 -3.53343 
250 4.75095 2.61624 -31.9746 -3.59392 -2.9403 -1.83913 -0.225027 0.131935 0.947708 -3.53305 
251 2.57693 2.38239 -30.6954 -3.52958 -3.43212 -2.14312 -0.268571 -0.16585 0.428457 -3.52954 
252 2.54868 2.41388 -28.1277 -3.5664 -3.47494 -2.34018 -0.295059 -0.185615 0.408255 -3.52957 
253 2.97811 4.53431 -29.4077 -3.06317 -3.53098 -2.0221 -0.292828 -0.682997 0.330942 -3.53311 
254 4.72037 2.67392 -29.4061 -3.63185 -2.95273 -2.02903 -0.258978 0.0985022 0.92741 -3.53309 
255 0.791607 4.25315 -28.1246 -3.69561 -4.61183 -2.63848 -0.185794 -0.893403 0.350453 -3.53368 
256 0.740144 4.26298 -25.5606 -3.66523 -4.66307 -2.80222 -0.188105 -0.898682 0.310923 -3.53363 
257 1.14943 6.39427 -26.8358 -3.1395 -4.36541 -2.41794 -0.23693 -1.32966 0.464938 -3.53343 
258 2.92431 4.57133 -26.8425 -3.04453 -3.54732 -2.18359 -0.315501 -0.704084 0.290843 -3.53317 
259 1.07209 6.40896 -24.2744 -3.08277 -4.3767 -2.53965 -0.232454 -1.33349 0.410513 -3.53348 
260 4.6892 2.73158 -26.8407 -3.64037 -2.94505 -2.19101 -0.294319 0.0604646 0.903541 -3.53315 
261 2.51998 2.44525 -25.563 -3.5762 -3.49568 -2.50781 -0.321144 -0.2064 0.38556 -3.52962 
262 2.49078 2.47633 -23.001 -3.56884 -3.5038 -2.64588 -0.344887 -0.226039 0.363252 -3.52967 
263 2.86982 4.60782 -24.28 -3.01089 -3.55117 -2.31746 -0.335991 -0.722979 0.251238 -3.53322 
264 4.65723 2.78899 -24.2781 -3.63023 -2.92813 -2.3248 -0.328314 0.0221405 0.879663 -3.5332 
265 0.688413 4.27234 -22.9992 -3.62461 -4.69375 -2.9337 -0.186589 -0.90267 0.271377 -3.53361 
266 0.636443 4.2811 -20.44 -3.58157 -4.71135 -3.03675 -0.181655 -0.905531 0.234168 -3.53361 
267 0.994381 6.42276 -21.7153 -3.0254 -4.37637 -2.63276 -0.224739 -1.33568 0.358646 -3.53354 
268 2.81461 4.6436 -21.7197 -2.97079 -3.54919 -2.42586 -0.352757 -0.738752 0.214641 -3.53327 
269 0.916356 6.43554 -19.158 -2.97225 -4.37048 -2.70287 -0.214267 -1.33684 0.311047 -3.53361 
270 4.62434 2.84603 -21.7178 -3.60944 -2.90898 -2.43253 -0.359411 -0.013736 0.857774 -3.53324 
271 2.46102 2.50704 -20.4412 -3.55169 -3.50581 -2.75674 -0.365285 -0.243426 0.342876 -3.52971 
272 2.43071 2.53733 -17.8832 -3.52974 -3.50569 -2.84389 -0.382042 -0.258244 0.325007 -3.52975 
273 2.75872 4.67858 -19.1614 -2.92961 -3.54537 -2.51189 -0.36522 -0.751314 0.182024 -3.5333 
274 4.59049 2.90261 -19.1594 -3.58344 -2.89161 -2.51752 -0.386975 -0.0458974 0.838717 -3.53327 
275 0.584264 4.2892 -17.8826 -3.54063 -4.72112 -3.11604 -0.173846 -0.907529 0.200366 -3.53362 
276 0.531911 4.29658 -15.3265 -3.504 -4.72646 -3.1761 -0.163728 -0.908925 0.170178 -3.53363 
277 0.838063 6.44723 -16.602 -2.92553 -4.36266 -2.75503 -0.201538 -1.33745 0.26817 -3.53368 
278 2.70216 4.71271 -16.6046 -2.89041 -3.54193 -2.57895 -0.373445 -0.761021 0.153431 -3.53332 
279 0.759543 6.45781 -14.047 -2.88582 -4.35496 -2.79339 -0.187039 -1.33782 0.229741 -3.53373 
280 4.55569 2.95869 -16.6025 -3.55563 -2.87797 -2.5834 -0.410934 -0.0740831 0.822623 -3.5333 
281 2.39988 2.56716 -15.3266 -3.50609 -3.50568 -2.91112 -0.395296 -0.27063 0.309657 -3.52977 
282 2.36856 2.59654 -12.7712 -3.48256 -3.50688 -2.96199 -0.405396 -0.280931 0.296559 -3.52979 
283 2.645 4.74598 -14.0489 -2.85468 -3.53993 -2.6303 -0.377826 -0.768392 0.128445 -3.53334 
284 4.51996 3.01425 -14.0469 -3.528 -2.86876 -2.63357 -0.431509 -0.0985992 0.809241 -3.53332 
285 0.479414 4.30323 -12.7714 -3.4725 -4.72946 -3.22081 -0.151827 -0.909908 0.143325 -3.53365 
286 0.426803 4.30917 -10.2171 -3.44617 -4.73132 -3.2533 -0.138589 -0.910594 0.119296 -3.53366 
287 0.680836 6.46727 -11.4929 -2.85289 -4.34839 -2.82112 -0.171192 -1.3381 0.195141 -3.53378 
288 2.58728 4.77839 -11.4942 -2.82296 -3.53985 -2.66877 -0.378872 -0.773945 0.106465 -3.53335 
289 0.601981 6.47562 -8.93937 -2.82621 -4.34344 -2.84057 -0.154335 -1.33834 0.163629 -3.53381 
290 4.48335 3.06929 -11.4921 -3.50165 -2.86401 -2.67097 -0.449037 -0.120006 0.798152 -3.53333 
291 2.33678 2.62546 -10.2167 -3.46011 -3.50975 -2.9995 -0.412753 -0.289556 0.285335 -3.52981 
292 2.30457 2.65391 -7.66273 -3.43922 -3.51443 -3.02609 -0.417749 -0.296898 0.27559 -3.52982 
293 2.52905 4.80995 -8.94019 -2.79529 -3.54179 -2.6967 -0.377069 -0.778133 0.0868613 -3.53336 
294 4.44591 3.12379 -8.93806 -3.47709 -2.86344 -2.69796 -0.46386 -0.138931 0.788891 -3.53334 
295 0.374106 4.31439 -7.66345 -3.42475 -4.73275 -3.27593 -0.124364 -0.91104 0.0975078 -3.53367 
296 0.321348 4.3189 -5.11016 -3.40791 -4.73412 -3.29044 -0.109403 -0.911286 0.0773918 -3.53368 
297 0.523012 6.48289 -6.38625 -2.80522 -4.34026 -2.8534 -0.136716 -1.33856 0.134469 -3.53384 
298 2.47035 4.84068 -6.38665 -2.77152 -3.54571 -2.7159 -0.372825 -0.781328 0.0690389 -3.53336 
299 0.443965 6.48909 -3.8334 -2.78947 -4.33889 -2.86077 -0.118522 -1.33881 0.106984 -3.53386 
300 4.40767 3.17775 -6.3845 -3.45456 -2.86667 -2.71634 -0.476275 -0.155975 0.781013 -3.53335 
301 2.27196 2.68191 -5.10924 -3.42009 -3.52088 -3.04358 -0.420687 -0.303307 0.266952 -3.52983 
302 2.23897 2.70945 -2.55601 -3.40284 -3.52903 -3.05325 -0.42178 -0.309086 0.259085 -3.52984 
303 2.41122 4.87057 -3.83343 -2.75148 -3.55153 -2.72771 -0.366451 -0.783841 0.0524613 -3.53337 
304 4.36868 3.23117 -3.83127 -3.43416 -2.87333 -2.72742 -0.486504 -0.171674 0.774123 -3.53336 
305 0.268557 4.32271 -2.55711 -3.39539 -4.73564 -3.29798 -0.0938806 -0.911382 0.0584267 -3.53369 
306 0.364873 6.49422 -1.28069 -2.7787 -4.33931 -2.8634 -0.0998956 -1.33915 0.080556 -3.53387 
307 2.3517 4.89963 -1.2804 -2.73505 -3.55912 -2.73301 -0.358174 -0.785942 0.0366433 -3.53337 
308 4.32897 3.28403 -1.27822 -3.41595 -2.88312 -2.73205 -0.494695 -0.186502 0.767871 -3.53336 
309 2.43668 7.09181 -0.00400556 -2.21146 -3.35883 -2.40302 -0.319184 -1.19123 -0.176699 -3.53293 
310 0.434957 8.66919 -0.004371 -2.2472 -4.01447 -2.49609 -0.10135 -1.72727 0.0903047 -3.53362 