ITEM: TIMESTEP
212
ITEM: NUMBER OF ATOMS
37664
ITEM: BOX BOUNDS ff ff ff
-100 100
-100 100
-156.15 156.15
ITEM: ATOMS id x y z v_peratom_sxx v_peratom_syy v_peratom_szz v_peratom_sxy v_peratom_sxz v_peratom_syz c_atomPE 
1 -0.00340378 -0.0016153 -0.000364864 -5.18114 -5.16898 -9.54301 0.000167603 -0.00829284 -0.0472355 -3.51524 
2 -0.00362022 -0.00136038 2.5528 -5.17889 -5.16757 -9.53901 -0.000874699 -0.00661775 -0.046527 -3.51526 
3 -0.00381531 -0.00109045 5.10608 -5.17238 -5.16216 -9.52493 -0.00197025 -0.00441783 -0.0455221 -3.51532 
4 -0.00398665 -0.000807407 7.65962 -5.16107 -5.15231 -9.49981 -0.00310725 -0.00160949 -0.0442245 -3.51544 
5 -0.0041294 -0.000515061 10.2136 -5.14418 -5.13726 -9.46203 -0.00424685 0.00179009 -0.042607 -3.51562 
6 -0.00423677 -0.000218537 12.7682 -5.1206 -5.11585 -9.40926 -0.00532842 0.00563799 -0.0406275 -3.51586 
7 -0.00430135 7.65613e-05 15.3236 -5.08882 -5.08646 -9.33841 -0.00628467 0.00968712 -0.0382605 -3.51619 
8 -0.00431681 0.000364711 17.88 -5.04667 -5.04679 -9.24548 -0.00705878 0.013645 -0.0355279 -3.51661 
9 -0.00427906 0.000640489 20.4379 -4.99117 -4.99368 -9.12552 -0.00761567 0.0172426 -0.0325165 -3.51716 
10 -0.0041867 0.000898146 22.9976 -4.91821 -4.92292 -8.97278 -0.00794542 0.020287 -0.0293769 -3.51785 
11 -0.00404062 0.00113104 25.5594 -4.82242 -4.82903 -8.78136 -0.00806058 0.0226865 -0.0263068 -3.5187 
12 -0.00384311 0.00133122 28.1239 -4.69747 -4.70562 -8.54695 -0.00799068 0.0244494 -0.0235221 -3.51973 
13 -0.00359687 0.00148946 30.6913 -4.53752 -4.54683 -8.26991 -0.00777492 0.0256609 -0.0212208 -3.52092 
14 -0.00330413 0.00159555 33.2621 -4.34101 -4.3511 -7.95895 -0.00745314 0.0264484 -0.0195479 -3.52221 
15 -0.00296607 0.00163873 35.8359 -4.11583 -4.12632 -7.63158 -0.00705685 0.0269493 -0.0185799 -3.52348 
16 -0.0025824 0.00160759 38.4127 -3.87803 -3.88858 -7.30612 -0.00660291 0.0272849 -0.0183316 -3.52458 
17 -0.00215068 0.00148932 40.9918 -3.63921 -3.64947 -6.98904 -0.00608853 0.027547 -0.0187889 -3.52547 
18 -0.00166343 0.00126686 43.5732 -3.40035 -3.40996 -6.66753 -0.00547546 0.0278693 -0.0199806 -3.52619 
19 -0.00110325 0.000914152 46.157 -3.13636 -3.14467 -6.30476 -0.0046263 0.0284222 -0.0219868 -3.52694 
20 -0.000451032 0.000391369 48.7436 -2.75381 -2.75847 -5.86509 -0.0026137 0.0284964 -0.0247232 -3.52781 
21 5.95933e-07 -4.11185e-08 51.3317 -1.92332 -1.92296 -4.92099 0.000197879 -0.00147496 0.00131055 -3.53204 
22 4.01304e-07 -1.42881e-06 53.9138 -0.851839 -0.851852 -8.91778 -7.62509e-07 -2.22493e-05 -7.26471e-05 -3.48169 
23 8.71386e-07 -1.98378e-06 56.3885 1.68561 1.68562 1.87696 -1.22386e-05 2.06492e-05 -1.04827e-06 -2.55581 
24 -1.23087e-07 -1.12453e-06 -53.8876 -2.6071 -2.60712 -6.5497 -1.37269e-05 8.61163e-06 -3.27367e-05 -3.40183 
25 1.02659e-07 -1.55837e-06 -51.3239 -2.07916 -2.07922 -5.58058 -0.000519316 0.000607917 0.00242985 -3.52873 
26 -0.000139142 -0.000687802 -48.7463 -2.69686 -2.6952 -6.1522 0.00687665 -0.00892983 -0.0429952 -3.52638 
27 -0.000292249 -0.00163322 -46.1647 -3.02416 -3.02103 -6.35351 0.0122562 -0.00672344 -0.039499 -3.52676 
28 -0.000379147 -0.00232951 -43.5824 -3.30551 -3.30079 -6.61406 0.0138231 -0.00348295 -0.036455 -3.52632 
29 -0.000408478 -0.00283642 -41.001 -3.56081 -3.55421 -6.90193 0.0143343 -0.000697446 -0.0341805 -3.52572 
30 -0.000405509 -0.00319298 -38.4213 -3.81083 -3.80225 -7.20983 0.0142367 0.00135965 -0.0325661 -3.52489 
31 -0.000394287 -0.00342477 -35.8438 -4.05693 -4.04644 -7.53395 0.0137131 0.00247938 -0.0315695 -3.52383 
32 -0.000397193 -0.00355188 -33.269 -4.28988 -4.27768 -7.86338 0.0128897 0.0025093 -0.031235 -3.5226 
33 -0.000434001 -0.00359288 -30.6973 -4.49677 -4.48316 -8.18071 0.0118838 0.00143688 -0.0316118 -3.52132 
34 -0.000519716 -0.00356559 -28.1288 -4.66909 -4.65446 -8.46895 0.0108021 -0.000562268 -0.0326966 -3.52009 
35 -0.000662378 -0.0034865 -25.5634 -4.80584 -4.79056 -8.71757 0.00972573 -0.00314074 -0.0344002 -3.51901 
36 -0.000861982 -0.0033697 -23.0007 -4.91092 -4.89534 -8.92356 0.0086996 -0.00585913 -0.0365431 -3.5181 
37 -0.00111109 -0.00322615 -20.4404 -4.99008 -4.97447 -9.08925 0.00773168 -0.00830202 -0.0388919 -3.51735 
38 -0.00139702 -0.00306358 -17.882 -5.04897 -5.03353 -9.2196 0.00680415 -0.0101742 -0.0412115 -3.51675 
39 -0.00170487 -0.00288701 -15.3251 -5.0924 -5.07726 -9.32028 0.0058907 -0.0113454 -0.043308 -3.51629 
40 -0.00202022 -0.00269955 -12.7694 -5.12412 -5.10937 -9.39666 0.00497124 -0.0118385 -0.0450483 -3.51593 
41 -0.00233106 -0.00250281 -10.2146 -5.14695 -5.13264 -9.45331 0.00403792 -0.0117765 -0.0463591 -3.51567 
42 -0.00262872 -0.0022972 -7.66051 -5.16292 -5.14907 -9.49392 0.00309205 -0.0113119 -0.0472151 -3.51548 
43 -0.00290796 -0.00208193 -5.10688 -5.17342 -5.16006 -9.52124 0.002136 -0.0105627 -0.047624 -3.51535 
44 -0.00316645 -0.00185531 -2.55354 -5.17934 -5.16653 -9.53723 0.00116556 -0.00957115 -0.0476163 -3.51527 
45 0.0927306 2.15862 1.27494 -4.0524 -5.13343 -3.83749 -0.05231 -0.442763 -0.00523915 -3.52909 
46 0.0662856 2.15986 3.82809 -4.04918 -5.13344 -3.82977 -0.0405353 -0.442209 -0.0145552 -3.5291 
47 0.0398655 2.16076 6.38145 -4.04766 -5.13148 -3.81377 -0.0286425 -0.441211 -0.024068 -3.52912 
48 0.0134896 2.16134 8.93514 -4.04807 -5.12723 -3.78855 -0.0166394 -0.439799 -0.034026 -3.52914 
49 -0.0128216 2.16157 11.4893 -4.05073 -5.12016 -3.75263 -0.00456576 -0.438089 -0.0446921 -3.52917 
50 -0.0390487 2.16146 14.0443 -4.0559 -5.10937 -3.70399 0.00745981 -0.436244 -0.056376 -3.52921 
51 -0.0651751 2.161 16.6001 -4.06355 -5.09355 -3.63991 0.0192118 -0.434422 -0.0694494 -3.52927 
52 -0.0911888 2.16018 19.1572 -4.07315 -5.07069 -3.55691 0.0303503 -0.432726 -0.0843223 -3.52933 
53 -0.117083 2.15902 21.7158 -4.08329 -5.03787 -3.45074 0.0404287 -0.431184 -0.10135 -3.52941 
54 -0.142854 2.15752 24.2764 -4.09102 -4.99085 -3.31668 0.0489177 -0.429752 -0.120624 -3.52952 
55 -0.168503 2.15571 26.8393 -4.091 -4.92367 -3.1503 0.0552691 -0.428314 -0.141594 -3.52966 
56 -0.194032 2.15365 29.405 -4.07425 -4.82866 -2.94913 0.0590664 -0.426694 -0.162533 -3.52985 
57 -0.219437 2.15142 31.9739 -4.02794 -4.69773 -2.7153 0.0603093 -0.424638 -0.180261 -3.53012 
58 -0.2447 2.1491 34.546 -3.93862 -4.52651 -2.45779 0.0597459 -0.421801 -0.191291 -3.53047 
59 -0.269784 2.14673 37.1213 -3.80098 -4.32039 -2.1908 0.0588591 -0.41775 -0.195387 -3.53088 
60 -0.294638 2.14424 39.6994 -3.62344 -4.09397 -1.92574 0.0591446 -0.412145 -0.19766 -3.53128 
61 -0.319234 2.14151 42.2797 -3.41796 -3.85793 -1.66278 0.0612677 -0.405171 -0.204306 -3.53165 
62 -0.343606 2.13847 44.862 -3.19119 -3.60898 -1.39025 0.0644702 -0.397405 -0.222077 -3.53193 
63 -0.367911 2.1353 47.4464 -2.91366 -3.29701 -1.10424 0.0655345 -0.391006 -0.243159 -3.53223 
64 -0.392512 2.13371 50.032 -2.43054 -2.80164 -0.491211 0.0607529 -0.41141 -0.208408 -3.53325 
65 -0.418483 2.1304 52.6263 -1.76572 -2.00555 -0.561413 0.0455145 -0.308978 -0.72987 -3.52457 
66 -0.44812 2.14653 55.1778 6.97655 7.73842 2.43094 0.0330037 -0.597325 1.77024 -3.02528 
67 0.649859 2.05055 -55.162 1.38941 0.842342 -0.678501 -0.188256 -0.0991979 1.20759 -3.26036 
68 0.633027 2.08274 -52.6122 -1.11198 -2.21871 -0.457747 -0.374493 -0.489285 -0.161368 -3.53567 
69 0.607028 2.08678 -50.0319 -2.00588 -2.55738 -0.878415 -0.167118 -0.427284 0.0745419 -3.53397 
70 0.581498 2.08791 -47.4534 -2.63998 -3.07358 -1.21512 -0.122938 -0.398191 0.144722 -3.5329 
71 0.556849 2.09117 -44.8714 -3.06197 -3.44315 -1.37348 -0.10011 -0.39305 0.189962 -3.53225 
72 0.53236 2.09529 -42.2896 -3.36153 -3.72863 -1.60194 -0.089996 -0.397143 0.202683 -3.53182 
73 0.50774 2.0997 -39.709 -3.60575 -3.98447 -1.8521 -0.0877432 -0.403088 0.209372 -3.5314 
74 0.48289 2.10426 -37.1304 -3.80849 -4.22217 -2.11506 -0.0914231 -0.408871 0.213334 -3.53097 
75 0.457804 2.10895 -34.5544 -3.96656 -4.43665 -2.38373 -0.0993714 -0.414069 0.212286 -3.53054 
76 0.432512 2.11376 -31.9813 -4.07568 -4.61812 -2.64611 -0.109297 -0.418886 0.203567 -3.53017 
77 0.407042 2.11865 -29.4116 -4.13913 -4.76143 -2.88863 -0.118699 -0.423488 0.187211 -3.52987 
78 0.381406 2.12349 -26.845 -4.16727 -4.86872 -3.10132 -0.125713 -0.427783 0.165846 -3.52965 
79 0.355615 2.12819 -24.2814 -4.17197 -4.9464 -3.28 -0.129465 -0.431576 0.14258 -3.52948 
80 0.329679 2.13267 -21.7203 -4.16308 -5.00172 -3.42526 -0.129871 -0.434727 0.119725 -3.52936 
81 0.303614 2.13686 -19.1612 -4.14753 -5.04095 -3.54047 -0.127282 -0.437194 0.0985835 -3.52928 
82 0.277441 2.14074 -16.6039 -4.12977 -5.06891 -3.63007 -0.122209 -0.439029 0.079681 -3.52921 
83 0.25118 2.14429 -14.0478 -4.11238 -5.08905 -3.69853 -0.115166 -0.440344 0.0630625 -3.52917 
84 0.224854 2.14751 -11.4928 -4.09673 -5.10372 -3.74981 -0.106609 -0.441277 0.0485149 -3.52914 
85 0.198479 2.1504 -8.93848 -4.08341 -5.1145 -3.78717 -0.0969212 -0.44195 0.0357103 -3.52911 
86 0.172069 2.15295 -6.38472 -4.07252 -5.12238 -3.81312 -0.086418 -0.442447 0.0242849 -3.5291 
87 0.145634 2.15517 -3.83134 -4.06389 -5.12796 -3.82947 -0.0753582 -0.442787 0.0138768 -3.52909 
88 0.119184 2.15706 -1.27816 -4.05726 -5.1316 -3.83741 -0.0639426 -0.442923 0.00414171 -3.52909 
89 0.215555 4.32532 -0.00239336 -3.38832 -4.73781 -3.29917 -0.0748649 -0.920976 0.0349812 -3.53368 
90 0.285593 6.49785 1.27341 -2.77228 -4.34058 -2.86148 -0.0792407 -1.34745 0.0492077 -3.53385 
91 2.20538 2.73613 -0.00137963 -3.38793 -3.5397 -3.05251 -0.41819 -0.324241 0.245544 -3.52984 
92 2.17176 2.76285 2.55172 -3.37491 -3.55044 -3.05013 -0.417061 -0.329645 0.238061 -3.52984 
93 2.29164 4.92752 1.27393 -2.72312 -3.56793 -2.73045 -0.346647 -0.79628 0.0136521 -3.53337 
94 4.28834 3.33607 1.27586 -3.39973 -2.8955 -2.72796 -0.499195 -0.208287 0.758343 -3.53337 
95 0.162769 4.32785 2.55055 -3.38305 -4.73992 -3.29553 -0.0596937 -0.920936 0.016733 -3.53368 
96 0.110002 4.3297 5.10361 -3.38133 -4.74218 -3.28574 -0.0442301 -0.92043 -0.00175334 -3.53369 
97 0.206444 6.50098 3.82612 -2.76843 -4.34449 -2.85591 -0.0610419 -1.34752 0.0230957 -3.53385 
98 2.23141 4.95501 3.82697 -2.7126 -3.57852 -2.72532 -0.336064 -0.798062 -0.00214657 -3.53337 
99 0.127342 6.50305 6.37902 -2.76947 -4.35007 -2.8457 -0.0424761 -1.34742 -0.00360087 -3.53385 
100 4.24729 3.38789 3.82892 -3.38586 -2.91069 -2.72198 -0.50449 -0.22259 0.752283 -3.53337 
101 2.13782 2.78911 5.10496 -3.3635 -3.56262 -3.04096 -0.414307 -0.334915 0.230528 -3.52984 
102 2.10357 2.81487 7.65846 -3.35398 -3.57617 -3.02436 -0.409733 -0.340248 0.222701 -3.52983 
103 2.17086 4.98164 6.3802 -2.70554 -3.5907 -2.71394 -0.323666 -0.799778 -0.0183899 -3.53337 
104 4.20557 3.4391 6.38218 -3.37416 -2.92868 -2.70976 -0.507635 -0.23702 0.745982 -3.53336 
105 0.0572863 4.33085 7.65693 -3.38371 -4.74451 -3.26927 -0.0284562 -0.919549 -0.0208801 -3.53369 
106 0.00465725 4.33131 10.2107 -3.39091 -4.74675 -3.24524 -0.0124123 -0.918468 -0.0410785 -3.53369 
107 0.048333 6.50405 8.93221 -2.77619 -4.35732 -2.83036 -0.0236207 -1.34739 -0.0314248 -3.53384 
108 2.11003 5.0074 8.93376 -2.70251 -3.6044 -2.69563 -0.309352 -0.801697 -0.0355397 -3.53336 
109 -0.0305437 6.50398 11.4859 -2.78938 -4.36619 -2.80904 -0.00463329 -1.34766 -0.0609854 -3.53381 
110 4.16321 3.48969 8.93576 -3.36496 -2.9495 -2.69058 -0.508384 -0.251952 0.739153 -3.53336 
111 2.06903 2.84013 10.2124 -3.34669 -3.59098 -2.99927 -0.403111 -0.345907 0.214291 -3.52982 
112 2.03421 2.86486 12.7669 -3.34202 -3.60675 -2.96415 -0.394211 -0.352229 0.204936 -3.52981 
113 2.04894 5.03226 11.4878 -2.70416 -3.61944 -2.66934 -0.29304 -0.804163 -0.0541486 -3.53336 
114 4.12021 3.53963 11.4898 -3.35865 -2.97315 -2.66334 -0.506447 -0.267827 0.731452 -3.53336 
115 -0.0478545 4.33106 12.765 -3.40364 -4.74854 -3.21231 0.00377266 -0.917384 -0.0628442 -3.53369 
116 -0.100223 4.3301 15.32 -3.42243 -4.74929 -3.16856 0.0198767 -0.916445 -0.0867522 -3.53369 
117 -0.109254 6.50282 14.0401 -2.80971 -4.37649 -2.78043 0.0142637 -1.3484 -0.0929798 -3.53378 
118 1.98762 5.05619 14.0425 -2.71107 -3.6355 -2.63358 -0.274664 -0.80757 -0.0748718 -3.53335 
119 -0.187769 6.50056 16.5951 -2.83765 -4.38779 -2.74267 0.0328094 -1.34967 -0.128185 -3.53373 
120 4.07659 3.58888 14.0445 -3.35558 -2.99962 -2.62651 -0.501491 -0.285168 0.722436 -3.53335 
121 1.99914 2.88905 15.3222 -3.34021 -3.62301 -2.91695 -0.38281 -0.359616 0.194186 -3.52979 
122 1.96381 2.91267 17.8786 -3.34123 -3.63891 -2.85503 -0.3687 -0.368508 0.181514 -3.52977 
123 1.92608 5.07916 16.5981 -2.72369 -3.65207 -2.58636 -0.254162 -0.812334 -0.0984508 -3.53334 
124 4.03236 3.6374 16.6001 -3.35595 -3.02871 -2.5781 -0.493149 -0.304573 0.711548 -3.53334 
125 -0.152426 4.32842 17.8761 -3.44751 -4.74794 -3.1114 0.0355959 -0.915701 -0.113433 -3.53368 
126 -0.204449 4.32602 20.4335 -3.47859 -4.74277 -3.03744 0.0505546 -0.915096 -0.143481 -3.53367 
127 -0.266064 6.4972 19.1512 -2.87341 -4.39924 -2.69311 0.0507294 -1.35138 -0.167399 -3.53368 
128 1.86433 5.10115 19.1548 -2.74218 -3.66826 -2.52512 -0.231478 -0.818872 -0.125657 -3.53332 
129 -0.344113 6.49274 21.7085 -2.91672 -4.40923 -2.62818 0.067751 -1.35325 -0.211294 -3.53362 
130 3.98751 3.68516 19.1568 -3.35967 -3.05996 -2.51564 -0.481039 -0.326689 0.698117 -3.53333 
131 1.92823 2.9357 20.4363 -3.34452 -3.65306 -2.77517 -0.351703 -0.379337 0.166362 -3.52974 
132 1.89243 2.95812 22.9957 -3.34861 -3.66315 -2.67363 -0.331731 -0.392428 0.148258 -3.5297 
133 1.8024 5.12213 21.7129 -2.76622 -3.68255 -2.4467 -0.206599 -0.827571 -0.157166 -3.53329 
134 3.94206 3.73211 21.7149 -3.36616 -3.09234 -2.43618 -0.464835 -0.35214 0.681411 -3.5333 
135 -0.256278 4.32293 22.9924 -3.51445 -4.73096 -2.94242 0.0643037 -0.914469 -0.17726 -3.53367 
136 -0.307905 4.31917 25.5534 -3.55219 -4.70807 -2.82149 0.076305 -0.913606 -0.214526 -3.53368 
137 -0.421891 6.48721 24.2675 -2.96637 -4.41487 -2.54327 0.0835965 -1.35487 -0.260117 -3.53355 
138 1.7403 5.14208 24.2728 -2.79455 -3.69247 -2.34748 -0.179669 -0.838716 -0.193298 -3.53326 
139 -0.499375 6.48069 26.8285 -3.01935 -4.41126 -2.43274 0.0979371 -1.3557 -0.313153 -3.53349 
140 3.89603 3.77824 24.2748 -3.37392 -3.12385 -2.3364 -0.444419 -0.381343 0.660782 -3.53327 
141 1.8564 2.97994 25.5572 -3.35048 -3.66543 -2.54644 -0.308932 -0.407796 0.127076 -3.52966 
142 1.8202 3.0012 28.1212 -3.34453 -3.65394 -2.39017 -0.283938 -0.424743 0.103527 -3.5296 
143 1.67806 5.16104 26.8349 -2.82425 -3.69402 -2.22374 -0.151185 -0.852312 -0.23354 -3.53321 
144 3.84946 3.82353 26.8367 -3.37987 -3.15085 -2.21284 -0.420143 -0.414124 0.635994 -3.53322 
145 -0.359328 4.31483 28.1169 -3.58599 -4.66735 -2.66976 0.0859327 -0.912284 -0.253825 -3.53372 
146 -0.410545 4.31005 30.6833 -3.6054 -4.59932 -2.48403 0.0925695 -0.910275 -0.291815 -3.5338 
147 -0.576547 6.47334 29.3921 -3.06949 -4.39051 -2.29056 0.110292 -1.35522 -0.367948 -3.53346 
148 1.61572 5.17913 29.3996 -2.84943 -3.68105 -2.07233 -0.122323 -0.867671 -0.275784 -3.53316 
149 -0.653396 6.46543 31.9587 -3.10553 -4.34084 -2.11206 0.119918 -1.35306 -0.419558 -3.53349 
150 3.80245 3.86803 29.4013 -3.37823 -3.16705 -2.06235 -0.393184 -0.449026 0.607842 -3.53316 
151 1.78391 3.02199 30.6881 -3.32142 -3.61988 -2.20325 -0.258189 -0.441286 0.0798781 -3.52955 
152 1.74766 3.04247 33.2583 -3.26784 -3.55208 -1.98778 -0.23407 -0.453884 0.0603365 -3.52954 
153 1.55338 5.19655 31.9672 -2.8596 -3.64452 -1.89174 -0.0952255 -0.882687 -0.315454 -3.5331 
154 3.7552 3.91188 31.9688 -3.3591 -3.16243 -1.88303 -0.365835 -0.482458 0.579006 -3.5331 
155 -0.461545 4.30504 33.253 -3.5946 -4.4927 -2.26551 0.0959103 -0.907175 -0.323317 -3.53396 
156 -0.512283 4.30001 35.8261 -3.53578 -4.33857 -2.0229 0.0964578 -0.902124 -0.343803 -3.53423 
157 -0.729897 6.45733 34.5287 -3.10976 -4.2468 -1.89761 0.125924 -1.34875 -0.460941 -3.53362 
158 1.49121 5.21365 34.5382 -2.83859 -3.57236 -1.68372 -0.0728811 -0.893176 -0.345583 -3.53307 
159 -0.805979 6.44942 37.1024 -3.06081 -4.09377 -1.65733 0.127945 -1.34098 -0.486449 -3.53389 
160 3.70801 3.95532 34.5397 -3.30735 -3.123 -1.67602 -0.341296 -0.508602 0.554449 -3.53307 
161 1.71165 3.06286 35.8318 -3.16984 -3.44049 -1.75095 -0.214281 -0.458709 0.0494031 -3.5296 
162 1.67603 3.08325 38.4084 -3.02184 -3.28331 -1.50351 -0.199977 -0.455423 0.0466605 -3.52976 
163 1.42947 5.23083 37.1126 -2.76741 -3.45181 -1.45515 -0.0579988 -0.893913 -0.360272 -3.53313 
164 3.66126 3.99863 37.1139 -3.20488 -3.03446 -1.44791 -0.322388 -0.522089 0.539316 -3.53312 
165 -0.562675 4.29503 38.4024 -3.41999 -4.13928 -1.77134 0.0958219 -0.89397 -0.35482 -3.53458 
166 -0.612626 4.28991 40.9813 -3.25474 -3.91084 -1.52314 0.0961816 -0.882202 -0.365402 -3.53492 
167 -0.881516 6.44179 39.6793 -2.94697 -3.88134 -1.41103 0.127191 -1.32803 -0.499211 -3.53426 
168 1.36838 5.24827 39.69 -2.63549 -3.27819 -1.21784 -0.0509901 -0.883671 -0.362829 -3.5333 
169 -0.956399 6.43415 42.2586 -2.7766 -3.62954 -1.1763 0.126332 -1.30988 -0.512057 -3.53461 
170 3.61519 4.04196 39.6912 -3.04146 -2.89178 -1.21106 -0.309541 -0.524186 0.532189 -3.53329 
171 1.64082 3.10356 40.9875 -2.83225 -3.08939 -1.25315 -0.189517 -0.449337 0.0440566 -3.53 
172 1.60591 3.12365 43.5687 -2.61103 -2.86679 -0.997485 -0.180403 -0.44705 0.0332022 -3.53027 
173 1.30799 5.26582 42.2697 -2.44926 -3.06063 -0.98189 -0.0490645 -0.868993 -0.367728 -3.53355 
174 3.56976 4.08521 42.2708 -2.82452 -2.70337 -0.977203 -0.300593 -0.524755 0.522169 -3.53353 
175 -0.662122 4.28447 43.5622 -3.05123 -3.66356 -1.27764 0.0986652 -0.86768 -0.384016 -3.53523 
176 -0.711331 4.27865 46.1445 -2.82144 -3.39523 -1.01467 0.102465 -0.852511 -0.416229 -3.53549 
177 -1.03069 6.42628 44.8393 -2.55671 -3.34522 -0.959611 0.126711 -1.28885 -0.530327 -3.53496 
178 1.24817 5.2833 44.851 -2.21592 -2.80379 -0.748928 -0.0505036 -0.858386 -0.386549 -3.53386 
179 -1.10477 6.4185 47.4203 -2.29409 -3.01662 -0.772503 0.129168 -1.26942 -0.544394 -3.53529 
180 3.52476 4.1283 44.852 -2.55935 -2.47655 -0.752215 -0.292906 -0.532734 0.500624 -3.53383 
181 1.57111 3.14347 46.1516 -2.3628 -2.61794 -0.719081 -0.172256 -0.4562 0.00558859 -3.53054 
182 1.53627 3.16344 48.7364 -2.08841 -2.36133 -0.3477 -0.183418 -0.479183 -0.0351708 -3.53015 
183 1.18846 5.30075 47.4331 -1.94172 -2.50485 -0.517884 -0.0636568 -0.864568 -0.432119 -3.53412 
184 3.47991 4.1713 47.4338 -2.23973 -2.22074 -0.544474 -0.286591 -0.55879 0.456058 -3.53404 
185 -0.760745 4.27348 48.7284 -2.60144 -3.07338 -0.66634 0.0965458 -0.842792 -0.423425 -3.53517 
186 -0.811621 4.26877 51.3169 -1.98833 -2.35099 0.313329 0.0839058 -0.842221 -0.652842 -3.53805 
187 -1.17889 6.41384 50.0002 -2.05522 -2.54102 -0.330461 0.085678 -1.27532 -0.621618 -3.53574 
188 1.12775 5.31799 50.0156 -1.56929 -2.07901 -0.0208724 -0.110075 -0.944588 -0.598167 -3.53484 
189 -1.25707 6.40546 52.5877 -1.61251 -2.48695 0.643166 0.175818 -1.3163 -0.61303 -3.53281 
190 3.43505 4.21346 50.0156 -1.7596 -1.85325 -0.0396975 -0.309458 -0.668232 0.310698 -3.5349 
191 1.50027 3.18358 51.3264 -1.43167 -1.70131 0.657725 -0.172626 -0.548766 -0.132869 -3.53273 
192 1.46587 3.20964 53.9052 0.0267214 0.954011 -0.795811 0.566315 -0.560962 0.139002 -3.37565 
193 1.06597 5.33731 52.6041 -1.24915 -1.89856 0.441546 -0.236972 -0.801326 -0.410833 -3.52779 
194 3.38747 4.26008 52.6041 -1.41014 -1.71358 0.389876 -0.39067 -0.639448 0.587333 -3.52746 
195 -0.866323 4.2769 53.8949 -0.0508757 -0.206092 -1.18044 0.0793668 -1.26166 1.02745 -3.38132 
196 1.3298 4.1174 -56.3442 5.06941 2.90561 1.60242 -1.25471 -0.273894 0.11026 -2.79034 
197 -1.33605 6.40133 55.1665 4.18011 2.79743 1.28999 0.31993 -1.52318 0.197843 -3.26107 
198 1.00488 5.36129 55.1754 5.64202 6.63184 2.70771 0.369833 -0.636465 -0.0326579 -3.15047 
199 1.98371 6.26223 -55.1334 6.93985 9.11552 2.92908 0.134194 -0.847902 -0.525652 -3.02309 
200 3.34328 4.30996 55.1754 5.53064 7.35761 2.86908 0.118715 -0.278648 0.562611 -3.15115 
201 2.87095 2.09325 -56.362 4.04253 6.00649 1.88097 -3.16453 0.25263 0.341776 -2.79939 
202 2.84551 2.1252 -53.8874 0.164962 0.763259 -3.02653 -0.982122 -0.73282 -0.162368 -3.51266 
203 3.53831 4.21674 -55.1525 6.03165 6.2739 1.75937 0.302437 -1.21952 -0.0444756 -3.1433 
204 5.07312 2.13635 -55.1525 6.04997 7.03886 2.00317 0.446068 -0.528123 0.0805271 -3.14511 
205 1.29262 4.16451 -53.8815 0.861245 -0.348323 -3.6751 -0.4089 -0.573878 0.839006 -3.51412 
206 1.24176 4.17585 -51.3147 -1.2871 -1.91125 -0.377461 -0.214935 -0.880891 0.22068 -3.53903 
207 1.90264 6.26187 -52.5941 -0.918039 -1.45685 -0.573155 -0.184193 -1.16806 0.820091 -3.52792 
208 3.4607 4.22944 -52.6036 -0.74894 -0.925857 0.0954676 -0.677519 -0.496107 0.191354 -3.53019 
209 1.82403 6.27282 -50.0101 -1.64459 -2.3297 -0.269521 -0.197708 -1.27827 0.428559 -3.53673 
210 5.01221 2.17771 -52.6036 -1.3419 -0.348556 0.0546414 -0.502565 0.0191631 0.991488 -3.52952 
211 2.80522 2.14769 -51.32 -1.10362 -0.946853 -0.113367 -0.278192 -0.333497 0.262322 -3.53415 
212 2.77238 2.17446 -48.7405 -1.97166 -1.83865 -0.54864 -0.290706 -0.220927 0.333751 -3.53088 
213 3.40036 4.25787 -50.02 -1.43228 -1.65452 -0.14209 -0.408923 -0.706535 0.284823 -3.53497 
214 4.971 2.23184 -50.02 -1.84422 -1.27424 -0.114975 -0.296553 0.022912 0.834585 -3.53501 
215 1.18978 4.18023 -48.7356 -2.18087 -2.76008 -0.79488 -0.179346 -0.844195 0.274079 -3.5364 
216 1.14008 4.18595 -46.1542 -2.63999 -3.1931 -0.981941 -0.160733 -0.828712 0.394721 -3.53605 
217 1.74888 6.27831 -47.4307 -2.10342 -2.83512 -0.683648 -0.211733 -1.23699 0.539299 -3.53589 
218 3.34528 4.28722 -47.4412 -1.90021 -2.20974 -0.567181 -0.299897 -0.635407 0.333053 -3.53415 
219 1.67513 6.28983 -44.8497 -2.47324 -3.19155 -0.870361 -0.197209 -1.24037 0.599045 -3.53535 
220 4.93504 2.28423 -47.4403 -2.32387 -1.78934 -0.543469 -0.210663 0.108562 0.862639 -3.5342 
221 2.74227 2.20147 -46.1595 -2.36743 -2.26989 -0.741782 -0.228782 -0.158552 0.389254 -3.53075 
222 2.71403 2.2299 -43.5778 -2.68051 -2.59279 -0.952288 -0.21136 -0.147002 0.410035 -3.53038 
223 3.29195 4.3192 -44.8606 -2.23705 -2.57432 -0.721867 -0.258193 -0.621282 0.368827 -3.53393 
224 4.9023 2.33713 -44.8596 -2.66032 -2.14399 -0.724763 -0.175178 0.146084 0.894313 -3.53393 
225 1.09107 4.19423 -43.5724 -2.97943 -3.51271 -1.20927 -0.146603 -0.836761 0.42121 -3.53554 
226 1.04194 4.2033 -40.9914 -3.24007 -3.78778 -1.45011 -0.143387 -0.85021 0.42841 -3.5351 
227 1.60155 6.30312 -42.2688 -2.75649 -3.49745 -1.09688 -0.195684 -1.2583 0.615443 -3.53485 
228 3.23951 4.35271 -42.2798 -2.51122 -2.87068 -0.921179 -0.240267 -0.623705 0.386838 -3.53361 
229 1.52746 6.31716 -39.689 -2.96801 -3.7645 -1.34044 -0.202062 -1.27791 0.61958 -3.53439 
230 4.87104 2.39096 -42.2788 -2.94429 -2.42622 -0.930151 -0.163569 0.157816 0.919726 -3.5336 
231 2.6863 2.25914 -40.9967 -2.93708 -2.8545 -1.18169 -0.207791 -0.145221 0.424274 -3.53007 
232 2.65864 2.28902 -38.4172 -3.15099 -3.06974 -1.42321 -0.212029 -0.14496 0.4359 -3.52982 
233 3.18726 4.38731 -39.6999 -2.72915 -3.11076 -1.14438 -0.234233 -0.629064 0.397404 -3.53334 
234 4.84035 2.44581 -39.6989 -3.18162 -2.64422 -1.15359 -0.163602 0.162369 0.941656 -3.53333 
235 0.992389 4.21269 -38.412 -3.44028 -4.03212 -1.70086 -0.147828 -0.86327 0.429898 -3.53469 
236 0.942366 4.22235 -35.8351 -3.58167 -4.24235 -1.95611 -0.15701 -0.874119 0.424788 -3.53431 
237 1.45269 6.33175 -37.1115 -3.11072 -3.98802 -1.59231 -0.212538 -1.29448 0.614793 -3.53399 
238 3.13495 4.42291 -37.1221 -2.89106 -3.2945 -1.37774 -0.237238 -0.636153 0.399636 -3.53315 
239 1.3773 6.34691 -34.5371 -3.18546 -4.15685 -1.83871 -0.222838 -1.30748 0.596172 -3.53368 
240 4.80991 2.50168 -37.121 -3.36936 -2.8008 -1.38592 -0.173527 0.161606 0.95573 -3.53315 
241 2.63095 2.3195 -35.84 -3.32127 -3.23883 -1.66912 -0.223473 -0.147589 0.441683 -3.52964 
242 2.6032 2.35051 -33.2656 -3.44341 -3.35956 -1.90909 -0.241908 -0.156378 0.437785 -3.52956 
243 3.0825 4.45939 -34.5471 -2.99477 -3.42053 -1.60763 -0.248604 -0.648153 0.388319 -3.53307 
244 4.77966 2.55843 -34.5459 -3.50225 -2.89797 -1.61513 -0.193462 0.150602 0.956903 -3.53306 
245 0.891937 4.23228 -33.2612 -3.66363 -4.40948 -2.20443 -0.167573 -0.88293 0.409054 -3.53401 
246 0.841177 4.24238 -30.6906 -3.69361 -4.53079 -2.4323 -0.176528 -0.890433 0.381673 -3.5338 
247 1.30138 6.36248 -31.9663 -3.20219 -4.26898 -2.06337 -0.229911 -1.31788 0.561433 -3.5335 
248 3.02981 4.49643 -31.9753 -3.04502 -3.49604 -1.82141 -0.266649 -0.665932 0.36232 -3.53307 
249 1.22502 6.37811 -29.3989 -3.17878 -4.3341 -2.25528 -0.232712 -1.32616 0.514162 -3.53342 
250 4.74943 2.61579 -31.974 -3.58282 -2.94505 -1.82903 -0.221837 0.126993 0.945052 -3.53306 
251 2.57532 2.38184 -30.6945 -3.51889 -3.43612 -2.13187 -0.265568 -0.171885 0.424006 -3.52955 
252 2.54715 2.41327 -28.1267 -3.55628 -3.47897 -2.32909 -0.291525 -0.191649 0.403712 -3.52958 
253 2.9767 4.53364 -29.4069 -3.05426 -3.53502 -2.01079 -0.288381 -0.686978 0.326167 -3.53312 
254 4.71893 2.67342 -29.4054 -3.62152 -2.95731 -2.01901 -0.255258 0.0936382 0.924628 -3.53311 
255 0.790126 4.25242 -28.1235 -3.68629 -4.61219 -2.63012 -0.182082 -0.89696 0.345828 -3.53368 
256 0.738803 4.26219 -25.5594 -3.65688 -4.66341 -2.79441 -0.183647 -0.902458 0.30617 -3.53362 
257 1.14824 6.39342 -26.8348 -3.13276 -4.36596 -2.4112 -0.231393 -1.33231 0.4605 -3.53343 
258 2.92302 4.57061 -26.8416 -3.03668 -3.55116 -2.17246 -0.310534 -0.708172 0.285895 -3.53318 
259 1.07106 6.40807 -24.2733 -3.07743 -4.37691 -2.53349 -0.226413 -1.33647 0.405895 -3.53347 
260 4.68786 2.73102 -26.84 -3.63081 -2.94934 -2.18109 -0.290069 0.0555248 0.90063 -3.53316 
261 2.51858 2.44458 -25.5619 -3.56661 -3.49969 -2.4968 -0.317016 -0.212607 0.380905 -3.52963 
262 2.48949 2.47562 -22.9998 -3.55978 -3.50771 -2.63495 -0.340174 -0.232535 0.358478 -3.52968 
263 2.86867 4.60706 -24.279 -3.00417 -3.55467 -2.30655 -0.330544 -0.727353 0.246073 -3.53323 
264 4.65601 2.78839 -24.2773 -3.62144 -2.93202 -2.315 -0.323574 0.0170229 0.876635 -3.53321 
265 0.687222 4.2715 -22.9979 -3.61722 -4.69394 -2.92645 -0.181394 -0.906858 0.266542 -3.5336 
266 0.635404 4.28023 -20.4386 -3.57511 -4.71132 -3.03007 -0.175839 -0.910236 0.229293 -3.5336 
267 0.993522 6.42184 -21.7141 -3.02138 -4.37616 -2.62719 -0.218278 -1.33909 0.353871 -3.53354 
268 2.81362 4.64282 -21.7187 -2.96518 -3.55227 -2.41524 -0.346928 -0.743519 0.209241 -3.53327 
269 0.91566 6.43461 -19.1567 -2.96947 -4.3698 -2.69788 -0.207521 -1.3407 0.306142 -3.5336 
270 4.62325 2.8454 -21.7169 -3.60143 -2.9124 -2.42291 -0.354266 -0.0190851 0.854647 -3.53325 
271 2.45986 2.5063 -20.4399 -3.54323 -3.5095 -2.74594 -0.360068 -0.250275 0.337985 -3.52972 
272 2.42969 2.53657 -17.8819 -3.522 -3.5091 -2.83335 -0.37646 -0.265461 0.320008 -3.52976 
273 2.75787 4.67778 -19.1603 -2.92509 -3.54797 -2.50167 -0.359146 -0.756514 0.176391 -3.5333 
274 4.58953 2.90197 -19.1585 -3.57625 -2.89449 -2.50814 -0.381543 -0.0514935 0.835517 -3.53329 
275 0.583375 4.2883 -17.8811 -3.53512 -4.72085 -3.10997 -0.167603 -0.912783 0.195478 -3.53361 
276 0.531165 4.29569 -15.3249 -3.49955 -4.72601 -3.17067 -0.157287 -0.914729 0.165287 -3.53363 
277 0.837519 6.4463 -16.6007 -2.92398 -4.36158 -2.75059 -0.194682 -1.34178 0.263162 -3.53367 
278 2.70146 4.71192 -16.6034 -2.887 -3.54403 -2.56925 -0.36728 -0.766655 0.147582 -3.53333 
279 0.759136 6.4569 -14.0457 -2.88558 -4.35359 -2.7895 -0.18028 -1.34267 0.224657 -3.53372 
280 4.55485 2.95804 -16.6016 -3.54934 -2.88031 -2.57436 -0.405357 -0.0799197 0.819378 -3.53331 
281 2.39899 2.5664 -15.3253 -3.49926 -3.50876 -2.90102 -0.389513 -0.278208 0.304559 -3.52978 
282 2.3678 2.59579 -12.7698 -3.47685 -3.50963 -2.95249 -0.399588 -0.288864 0.291362 -3.5298 
283 2.64443 4.74521 -14.0477 -2.85243 -3.54159 -2.62124 -0.371739 -0.774454 0.122397 -3.53334 
284 4.51924 3.01362 -14.0459 -3.52273 -2.87061 -2.625 -0.425944 -0.104666 0.805979 -3.53333 
285 0.478805 4.30236 -12.7698 -3.4693 -4.72894 -3.21606 -0.145419 -0.916287 0.138429 -3.53364 
286 0.426319 4.30834 -10.2155 -3.44439 -4.73088 -3.24929 -0.132436 -0.917613 0.114392 -3.53365 
287 0.680548 6.4664 -11.4915 -2.854 -4.34691 -2.81778 -0.164764 -1.34356 0.190005 -3.53376 
288 2.58683 4.77766 -11.493 -2.82191 -3.54111 -2.6605 -0.373043 -0.78045 0.100225 -3.53335 
289 0.601785 6.47482 -8.93796 -2.8285 -4.342 -2.83783 -0.14849 -1.34452 0.158461 -3.53379 
290 4.48275 3.06868 -11.4911 -3.49749 -2.86543 -2.66301 -0.443652 -0.126302 0.794889 -3.53334 
291 2.33614 2.62475 -10.2152 -3.45572 -3.5122 -2.99082 -0.407097 -0.297854 0.280025 -3.52982 
292 2.30404 2.65326 -7.66125 -3.43627 -3.51658 -3.01844 -0.412436 -0.305582 0.270137 -3.52983 
293 2.5287 4.80927 -8.93889 -2.79543 -3.5427 -2.6894 -0.371704 -0.785111 0.0804133 -3.53336 
294 4.44541 3.12322 -8.93701 -3.4741 -2.86448 -2.69076 -0.45884 -0.145469 0.785628 -3.53335 
295 0.37373 4.31362 -7.66173 -3.42442 -4.73249 -3.27276 -0.11868 -0.918784 0.0925892 -3.53366 
296 0.32106 4.3182 -5.1084 -3.40877 -4.73411 -3.28822 -0.104403 -0.919794 0.0724399 -3.53367 
297 0.522876 6.48217 -6.38481 -2.80819 -4.33896 -2.85131 -0.131706 -1.34551 0.129275 -3.53382 
298 2.47008 4.84007 -6.38533 -2.77264 -3.5463 -2.70976 -0.36815 -0.788805 0.0623532 -3.53336 
299 0.443851 6.48845 -3.83195 -2.7923 -4.33777 -2.85936 -0.114549 -1.34641 0.101749 -3.53384 
300 4.40727 3.17724 -6.38343 -3.45268 -2.86737 -2.71007 -0.471818 -0.162769 0.77773 -3.53336 
301 2.27153 2.68133 -5.10773 -3.41854 -3.52269 -3.03716 -0.41593 -0.31239 0.261312 -3.52984 
302 2.23864 2.70895 -2.55449 -3.40246 -3.53043 -3.04827 -0.41781 -0.318543 0.253211 -3.52984 
303 2.41101 4.87004 -3.83209 -2.75316 -3.55176 -2.72289 -0.362693 -0.791789 0.0455061 -3.53337 
304 4.36836 3.23073 -3.83019 -3.43318 -2.87369 -2.72222 -0.482811 -0.178727 0.77078 -3.53336 
305 0.268327 4.3221 -2.55533 -3.39687 -4.73587 -3.2968 -0.0897715 -0.920564 0.0534017 -3.53367 
306 0.364744 6.49368 -1.27925 -2.78036 -4.33833 -2.86264 -0.0970665 -1.34709 0.0752498 -3.53385 
307 2.35151 4.8992 -1.27905 -2.73669 -3.559 -2.72965 -0.355508 -0.794236 0.0294083 -3.53337 
308 4.32871 3.28368 -1.27713 -3.41554 -2.88313 -2.72805 -0.491935 -0.193777 0.764419 -3.53336 
309 2.43655 7.09145 -0.00289085 -2.21258 -3.35758 -2.40102 -0.317912 -1.19827 -0.184123 -3.53292 
310 0.434823 8.66874 -0.00326849 -2.24642 -4.01224 -2.49494 -0.0998443 -1.73349 0.0853603 -3.53361 