ITEM: TIMESTEP
0
ITEM: NUMBER OF ATOMS
37664
ITEM: BOX BOUNDS ff ff ff
-100 100
-100 100
-156.15 156.15
ITEM: ATOMS id x y z v_peratom_sxx v_peratom_syy v_peratom_szz v_peratom_sxy v_peratom_sxz v_peratom_syz c_atomPE 
1 -0.00293892 -0.00109196 -0.0026487 -5.18275 -5.16891 -9.54425 -0.00264961 0.0194505 -0.0465774 -3.51524 
2 -0.00326127 -0.000922828 2.55051 -5.17856 -5.16659 -9.53784 -0.00368909 0.0216271 -0.0453766 -3.51527 
3 -0.00354973 -0.000745725 5.10382 -5.17031 -5.16034 -9.52135 -0.00467742 0.0236514 -0.0436923 -3.51534 
4 -0.00380272 -0.000558242 7.65742 -5.15762 -5.1498 -9.49403 -0.00559808 0.0254715 -0.0415509 -3.51547 
5 -0.00401901 -0.000358549 10.2115 -5.1398 -5.13423 -9.45441 -0.00643365 0.0270539 -0.038991 -3.51566 
6 -0.00419742 -0.000145789 12.7661 -5.11573 -5.1125 -9.40028 -0.00716773 0.0283828 -0.0360741 -3.51591 
7 -0.0043366 7.93863e-05 15.3217 -5.08377 -5.08293 -9.32852 -0.00778539 0.0294572 -0.032892 -3.51624 
8 -0.00443469 0.000314272 17.8783 -5.04161 -5.04318 -9.23507 -0.00827339 0.0302879 -0.0295695 -3.51667 
9 -0.00448919 0.000553702 20.4363 -4.9861 -4.99005 -9.11484 -0.0086209 0.0308967 -0.0262623 -3.51721 
10 -0.00449668 0.000789918 22.9961 -4.91301 -4.91926 -8.96195 -0.0088212 0.0313194 -0.0231461 -3.5179 
11 -0.00445277 0.00101284 25.5581 -4.81694 -4.8253 -8.77043 -0.00887404 0.0316098 -0.0203989 -3.51875 
12 -0.00435201 0.00121081 28.1227 -4.69157 -4.70178 -8.53592 -0.00878789 0.0318411 -0.0181758 -3.51978 
13 -0.00418804 0.00137159 30.6904 -4.53111 -4.54285 -8.2588 -0.00858005 0.0320987 -0.0165827 -3.52097 
14 -0.00395383 0.00148352 33.2612 -4.33411 -4.34699 -7.94781 -0.00827247 0.0324656 -0.0156605 -3.52226 
15 -0.00364204 0.00153581 35.8353 -4.10854 -4.12213 -7.62049 -0.00788423 0.0330049 -0.0153961 -3.52352 
16 -0.0032453 0.00151789 38.4121 -3.8705 -3.88435 -7.29519 -0.00742408 0.0337381 -0.0157559 -3.52462 
17 -0.0027561 0.00141741 40.9914 -3.6316 -3.64525 -6.97836 -0.00688305 0.0346325 -0.0167325 -3.52551 
18 -0.00216372 0.00121643 43.5729 -3.39282 -3.4057 -6.65721 -0.0062153 0.0356855 -0.0184057 -3.52623 
19 -0.00144891 0.000886062 46.1568 -3.12894 -3.14014 -6.29512 -0.00526285 0.0369188 -0.0209226 -3.52697 
20 -0.000592745 0.000381984 48.7435 -2.74752 -2.75383 -5.85706 -0.00294755 0.0373652 -0.0242105 -3.52783 
21 5.95933e-07 -4.11185e-08 51.3317 -1.92325 -1.92277 -4.91882 0.000218878 -0.00192847 0.00129587 -3.53203 
22 4.01304e-07 -1.42881e-06 53.9138 -0.851827 -0.851841 -8.91771 -1.00566e-06 -2.3621e-05 -7.31984e-05 -3.48169 
23 8.71386e-07 -1.98378e-06 56.3885 1.68561 1.68562 1.87696 -1.22415e-05 2.07156e-05 -1.05103e-06 -2.55581 
24 -1.23087e-07 -1.12453e-06 -53.8876 -2.60714 -2.60714 -6.54978 -1.35683e-05 1.00537e-05 -3.6046e-05 -3.40183 
25 1.02659e-07 -1.55837e-06 -51.3239 -2.07923 -2.07964 -5.58515 -0.000553187 -0.000870893 0.00239111 -3.52874 
26 0.000285415 -0.000663192 -48.7464 -2.71054 -2.70513 -6.1688 0.00676943 0.0174115 -0.0415182 -3.52632 
27 0.000690717 -0.00154279 -46.165 -3.03951 -3.03076 -6.37205 0.0121948 0.0171016 -0.0373521 -3.52669 
28 0.000968417 -0.00216676 -43.5829 -3.31976 -3.30946 -6.63214 0.0137275 0.0180546 -0.0331711 -3.52626 
29 0.00115709 -0.00259553 -41.0017 -3.57356 -3.56189 -6.91849 0.0142456 0.0186393 -0.0299543 -3.52566 
30 0.00126823 -0.0028749 -38.4221 -3.8219 -3.80889 -7.22455 0.0142539 0.0186349 -0.0277359 -3.52484 
31 0.00130994 -0.00303484 -35.8448 -4.06646 -4.05204 -7.54689 0.0139324 0.0179771 -0.0265006 -3.52378 
32 0.00128801 -0.0030965 -33.2701 -4.29832 -4.2824 -7.87492 0.0133523 0.0166837 -0.0262443 -3.52256 
33 0.00120498 -0.00307696 -30.6986 -4.50473 -4.48726 -8.1914 0.0125429 0.0148715 -0.0269336 -3.52128 
34 0.00106043 -0.00299186 -28.1302 -4.6772 -4.65825 -8.47934 0.0115203 0.0127751 -0.0284867 -3.52005 
35 0.000853207 -0.00285681 -25.5649 -4.81452 -4.79427 -8.72806 0.0103082 0.0107166 -0.0307573 -3.51897 
36 0.000584264 -0.00268758 -23.0023 -4.92032 -4.89913 -8.9343 0.00894856 0.00902977 -0.0335265 -3.51805 
37 0.000258808 -0.00249909 -20.4421 -5.00007 -4.97835 -9.10015 0.00750061 0.00796916 -0.0365264 -3.51731 
38 -0.000113383 -0.00230392 -17.8838 -5.05922 -5.03742 -9.23038 0.00602847 0.00766051 -0.0394813 -3.51671 
39 -0.000519166 -0.00211116 -15.327 -5.10247 -5.08103 -9.33063 0.00458736 0.00810154 -0.0421502 -3.51625 
40 -0.000943984 -0.00192592 -12.7714 -5.13358 -5.11285 -9.40623 0.0032134 0.00919611 -0.0443542 -3.5159 
41 -0.00137379 -0.00174972 -10.2167 -5.1554 -5.13567 -9.46181 0.00192016 0.0107992 -0.0459874 -3.51563 
42 -0.00179647 -0.00158133 -7.66267 -5.17001 -5.1515 -9.50104 0.000702194 0.0127559 -0.0470093 -3.51545 
43 -0.00220249 -0.0014179 -5.10909 -5.17887 -5.16176 -9.52669 -0.000456267 0.0149253 -0.0474266 -3.51533 
44 -0.0025849 -0.00125593 -2.5558 -5.18293 -5.16738 -9.5407 -0.00157096 0.0171893 -0.0472707 -3.51526 
45 0.0930382 2.15911 1.2729 -4.05165 -5.13225 -3.8373 -0.0552111 -0.431441 -0.00106108 -3.5291 
46 0.06655 2.16024 3.82609 -4.04862 -5.13204 -3.82813 -0.0425824 -0.430938 -0.0100711 -3.52911 
47 0.0400994 2.16105 6.37949 -4.04791 -5.12994 -3.81084 -0.0298093 -0.43047 -0.0191902 -3.52913 
48 0.0136963 2.16152 8.93326 -4.04957 -5.12562 -3.78456 -0.0170144 -0.430055 -0.0287189 -3.52915 
49 -0.012649 2.16166 11.4876 -4.05358 -5.11852 -3.74786 -0.00434088 -0.429694 -0.0389946 -3.52918 
50 -0.0389261 2.16147 14.0426 -4.05988 -5.10774 -3.69867 0.00803562 -0.429368 -0.0504012 -3.52922 
51 -0.0651239 2.16095 16.5986 -4.0682 -5.09192 -3.63419 0.0198921 -0.429043 -0.0633644 -3.52926 
52 -0.0912311 2.16009 19.1558 -4.07787 -5.06909 -3.55087 0.030941 -0.428669 -0.0783174 -3.52933 
53 -0.117236 2.1589 21.7145 -4.08747 -5.03629 -3.4444 0.0408145 -0.428181 -0.0956086 -3.52941 
54 -0.143129 2.15739 24.2752 -4.09419 -4.98926 -3.31003 0.0490642 -0.427499 -0.1153 -3.52952 
55 -0.1689 2.15557 26.8382 -4.09281 -4.92206 -3.14331 0.0552064 -0.426517 -0.136791 -3.52966 
56 -0.194541 2.15351 29.4041 -4.07457 -4.82698 -2.94181 0.0588632 -0.425092 -0.158302 -3.52986 
57 -0.220035 2.15127 31.9731 -4.02677 -4.69597 -2.70771 0.0600452 -0.423014 -0.176595 -3.53012 
58 -0.245357 2.14896 34.5454 -3.93614 -4.52465 -2.45002 0.0594884 -0.419975 -0.188143 -3.53047 
59 -0.270459 2.1466 37.1208 -3.79746 -4.31842 -2.18298 0.0586491 -0.415576 -0.192693 -3.53088 
60 -0.295285 2.14412 39.699 -3.61926 -4.09188 -1.91797 0.0589934 -0.409512 -0.195371 -3.53129 
61 -0.3198 2.14142 42.2794 -3.41353 -3.85567 -1.65518 0.0611646 -0.402016 -0.202409 -3.53165 
62 -0.344038 2.1384 44.8618 -3.18686 -3.60642 -1.38288 0.0644016 -0.393683 -0.220582 -3.53194 
63 -0.368148 2.13527 47.4463 -2.9096 -3.29398 -1.09702 0.0655112 -0.38653 -0.241962 -3.53224 
64 -0.392512 2.13371 50.032 -2.42787 -2.80041 -0.487288 0.0589249 -0.409201 -0.208395 -3.53325 
65 -0.418483 2.1304 52.6263 -1.76568 -2.00551 -0.561348 0.0455278 -0.308976 -0.729854 -3.52457 
66 -0.44812 2.14653 55.1778 6.97655 7.73842 2.43094 0.0330038 -0.597324 1.77024 -3.02528 
67 0.649859 2.05055 -55.162 1.3894 0.842339 -0.678518 -0.188257 -0.0991964 1.20759 -3.26036 
68 0.633027 2.08274 -52.6122 -1.11212 -2.21876 -0.457832 -0.374519 -0.489249 -0.161386 -3.53567 
69 0.607028 2.08678 -50.0319 -2.00547 -2.56345 -0.883813 -0.163452 -0.421901 0.0768432 -3.53399 
70 0.58214 2.08801 -47.4535 -2.65059 -3.0785 -1.22799 -0.123819 -0.387171 0.149134 -3.5329 
71 0.557966 2.09135 -44.8717 -3.07334 -3.44733 -1.38713 -0.100972 -0.383958 0.19424 -3.53224 
72 0.533784 2.09555 -42.29 -3.37264 -3.7321 -1.61534 -0.0907458 -0.389274 0.207163 -3.53181 
73 0.509344 2.10003 -39.7096 -3.6162 -3.98728 -1.86472 -0.0883634 -0.396245 0.21402 -3.53139 
74 0.484576 2.10466 -37.1312 -3.81812 -4.22432 -2.1267 -0.0919497 -0.402902 0.218065 -3.53095 
75 0.459499 2.10942 -34.5552 -3.97542 -4.43816 -2.39437 -0.0999144 -0.408785 0.217046 -3.53053 
76 0.434164 2.1143 -31.9824 -4.08396 -4.61908 -2.65588 -0.110045 -0.41406 0.208339 -3.53016 
77 0.408617 2.11925 -29.4127 -4.14705 -4.76195 -2.89773 -0.119889 -0.418858 0.191986 -3.52986 
78 0.382885 2.12416 -26.8463 -4.175 -4.86896 -3.10994 -0.127563 -0.423068 0.170592 -3.52964 
79 0.356986 2.12892 -24.2828 -4.17959 -4.94651 -3.28825 -0.132109 -0.426519 0.147247 -3.52948 
80 0.330936 2.13345 -21.7218 -4.17056 -5.00182 -3.43317 -0.133319 -0.429133 0.124258 -3.52936 
81 0.304753 2.13768 -19.1628 -4.15476 -5.04112 -3.54799 -0.131424 -0.430952 0.102946 -3.52927 
82 0.278459 2.14158 -16.6056 -4.13651 -5.06916 -3.63712 -0.126854 -0.432102 0.0838667 -3.52921 
83 0.252078 2.14514 -14.0496 -4.11834 -5.08933 -3.705 -0.120093 -0.432734 0.0670944 -3.52917 
84 0.22563 2.14834 -11.4946 -4.10162 -5.10395 -3.75558 -0.11161 -0.432987 0.0524344 -3.52914 
85 0.199137 2.15118 -8.94039 -4.08697 -5.11456 -3.79208 -0.101818 -0.432969 0.0395644 -3.52912 
86 0.172616 2.15368 -6.38669 -4.07463 -5.12217 -3.81699 -0.0910532 -0.432754 0.0281208 -3.5291 
87 0.146083 2.15583 -3.83335 -4.06465 -5.12743 -3.83213 -0.0795774 -0.432396 0.0177478 -3.5291 
88 0.119553 2.15764 -1.2802 -4.057 -5.13073 -3.83868 -0.0675822 -0.431942 0.00811919 -3.5291 
89 0.215792 4.32585 -0.00411782 -3.38688 -4.73758 -3.29933 -0.0778617 -0.911241 0.0401387 -3.5337 
90 0.285822 6.4983 1.27204 -2.77304 -4.34168 -2.86183 -0.0808044 -1.33956 0.0546314 -3.53387 
91 2.20567 2.73655 -0.00287868 -3.38731 -3.53898 -3.05589 -0.421081 -0.314397 0.251775 -3.52984 
92 2.17202 2.76317 2.55023 -3.37441 -3.5503 -3.05189 -0.418776 -0.31975 0.244554 -3.52984 
93 2.29186 4.92786 1.27262 -2.72223 -3.56857 -2.73225 -0.348009 -0.787766 0.0212197 -3.53337 
94 4.2886 3.33635 1.27479 -3.39989 -2.896 -2.73068 -0.500812 -0.200783 0.762037 -3.53337 
95 0.163022 4.32827 2.54885 -3.3833 -4.73969 -3.29484 -0.0615245 -0.911321 0.0220974 -3.5337 
96 0.110283 4.33001 5.10196 -3.38386 -4.74199 -3.28435 -0.0449866 -0.911452 0.00385732 -3.5337 
97 0.206748 6.50132 3.8248 -2.77236 -4.3456 -2.85594 -0.0616793 -1.3403 0.028629 -3.53387 
98 2.23165 4.95525 3.82568 -2.71337 -3.57942 -2.72577 -0.336345 -0.789824 0.00555064 -3.53337 
99 0.127714 6.50329 6.37775 -2.77647 -4.35118 -2.84552 -0.0424647 -1.34129 0.00201684 -3.53386 
100 4.24752 3.38808 3.82786 -3.38652 -2.91152 -2.72347 -0.505065 -0.215139 0.756141 -3.53337 
101 2.13805 2.78932 5.10348 -3.36362 -3.56299 -3.0411 -0.414846 -0.325242 0.237229 -3.52984 
102 2.10378 2.81498 7.65702 -3.35505 -3.57693 -3.02301 -0.409236 -0.331101 0.229512 -3.52983 
103 2.17112 4.98179 6.37895 -2.70821 -3.59174 -2.71319 -0.323078 -0.792158 -0.0107073 -3.53337 
104 4.20577 3.43921 6.38112 -3.37557 -2.92977 -2.71007 -0.507283 -0.229819 0.749985 -3.53337 
105 0.0575916 4.33106 7.65535 -3.38871 -4.74439 -3.26737 -0.0283577 -0.911662 -0.0150321 -3.5337 
106 0.0049686 4.33142 10.2092 -3.39808 -4.74668 -3.24298 -0.0117571 -0.911959 -0.0350596 -3.5337 
107 0.0487445 6.5042 8.93102 -2.78564 -4.35841 -2.83003 -0.0232635 -1.34254 -0.0257848 -3.53384 
108 2.11029 5.00746 8.93256 -2.70698 -3.60545 -2.69389 -0.30818 -0.794979 -0.0280366 -3.53337 
109 -0.0301318 6.50404 11.4847 -2.80031 -4.36721 -2.80857 -0.0041906 -1.34411 -0.0554106 -3.53381 
110 4.16338 3.48972 8.93473 -3.36719 -2.95075 -2.68981 -0.5073 -0.245204 0.743251 -3.53336 
111 2.0692 2.84016 10.211 -3.34882 -3.59197 -2.99665 -0.401824 -0.337562 0.221079 -3.52982 
112 2.03434 2.86482 12.7656 -3.34506 -3.60785 -2.96052 -0.392424 -0.344886 0.211558 -3.52981 
113 2.04918 5.03224 11.4867 -2.70999 -3.62039 -2.66684 -0.291568 -0.798518 -0.04698 -3.53336 
114 4.12034 3.53959 11.4888 -3.36157 -2.97449 -2.66164 -0.504859 -0.261707 0.735568 -3.53336 
115 -0.0475668 4.33109 12.7635 -3.41231 -4.74851 -3.20979 0.00467697 -0.91233 -0.0567676 -3.53369 
116 -0.0999935 4.33006 15.3187 -3.43171 -4.74926 -3.16581 0.0207768 -0.912737 -0.0807555 -3.53368 
117 -0.108886 6.50281 14.039 -2.821 -4.37743 -2.77977 0.0146191 -1.34598 -0.0875661 -3.53377 
118 1.98781 5.05611 14.0414 -2.71764 -3.63634 -2.63054 -0.273118 -0.803033 -0.0681568 -3.53335 
119 -0.187487 6.5005 16.5941 -2.84832 -4.38864 -2.74172 0.0330054 -1.34812 -0.12302 -3.53373 
120 4.07666 3.58878 14.0436 -3.35889 -3.00099 -2.62405 -0.499613 -0.27979 0.726489 -3.53335 
121 1.9992 2.88895 15.321 -3.3438 -3.62413 -2.91258 -0.380793 -0.353367 0.200513 -3.52979 
122 1.96378 2.91252 17.8774 -3.34488 -3.64003 -2.85018 -0.366651 -0.363337 0.187447 -3.52977 
123 1.92619 5.07904 16.5971 -2.7303 -3.65281 -2.58294 -0.252674 -0.808825 -0.0922596 -3.53334 
124 4.03235 3.63726 16.5992 -3.35926 -3.03011 -2.57504 -0.491143 -0.299978 0.715463 -3.53334 
125 -0.152289 4.32833 17.8749 -3.45652 -4.74792 -3.10838 0.0363304 -0.913105 -0.107653 -3.53368 
126 -0.204431 4.3259 20.4324 -3.48659 -4.74274 -3.03408 0.0510621 -0.913318 -0.138034 -3.53367 
127 -0.265899 6.49709 19.1503 -2.88273 -4.40003 -2.69175 0.0507819 -1.35042 -0.162551 -3.53367 
128 1.86435 5.10099 19.1539 -2.74821 -3.66896 -2.52142 -0.230085 -0.816229 -0.120012 -3.53332 
129 -0.344087 6.4926 21.7077 -2.92425 -4.40996 -2.62634 0.0677348 -1.35263 -0.206808 -3.53361 
130 3.98741 3.68498 19.156 -3.36259 -3.06143 -2.51214 -0.478996 -0.322849 0.701839 -3.53333 
131 1.92811 2.93552 20.4352 -3.34776 -3.65419 -2.77002 -0.349726 -0.375138 0.171841 -3.52974 
132 1.89219 2.95793 22.9947 -3.35102 -3.66433 -2.6683 -0.329846 -0.389037 0.15326 -3.5297 
133 1.8023 5.12193 21.7121 -2.77119 -3.68328 -2.44275 -0.205265 -0.825594 -0.152048 -3.53329 
134 3.94186 3.73191 21.7141 -3.36833 -3.09391 -2.43236 -0.46278 -0.348969 0.684908 -3.5333 
135 -0.256395 4.32278 22.9914 -3.52091 -4.73093 -2.93866 0.0646064 -0.913222 -0.172232 -3.53367 
136 -0.308162 4.31901 25.5525 -3.55685 -4.70803 -2.81727 0.0764791 -0.912643 -0.209964 -3.53368 
137 -0.422011 6.48704 24.2667 -2.97194 -4.41557 -2.54089 0.0836129 -1.3544 -0.256013 -3.53355 
138 1.74008 5.14187 24.272 -2.79819 -3.69329 -2.34331 -0.178312 -0.837201 -0.188664 -3.53326 
139 -0.499637 6.4805 26.8279 -3.02303 -4.41192 -2.42982 0.0980843 -1.35524 -0.309431 -3.53349 
140 3.89572 3.77802 24.274 -3.3751 -3.12555 -2.33234 -0.442329 -0.378718 0.664041 -3.53327 
141 1.85605 2.97974 25.5563 -3.35177 -3.66668 -2.54099 -0.307101 -0.405019 0.13161 -3.52965 
142 1.81974 3.00099 28.1204 -3.34455 -3.65524 -2.38465 -0.282098 -0.422378 0.107626 -3.5296 
143 1.67771 5.16081 26.8342 -2.82643 -3.69494 -2.21934 -0.149718 -0.851071 -0.22933 -3.53321 
144 3.84905 3.8233 26.8361 -3.37991 -3.15267 -2.20859 -0.417973 -0.4119 0.639021 -3.53322 
145 -0.359717 4.31465 28.1161 -3.58878 -4.66727 -2.66509 0.0860756 -0.911414 -0.249739 -3.53371 
146 -0.411048 4.30987 30.6826 -3.60644 -4.59917 -2.47895 0.0927695 -0.909351 -0.288181 -3.5338 
147 -0.576935 6.47314 29.3915 -3.07143 -4.3911 -2.28716 0.110643 -1.3547 -0.364583 -3.53346 
148 1.61526 5.17888 29.3989 -2.85018 -3.68204 -2.0677 -0.120679 -0.866538 -0.271924 -3.53316 
149 -0.653884 6.46521 31.9582 -3.10598 -4.34132 -2.10828 0.120509 -1.35242 -0.416511 -3.53349 
150 3.80195 3.8678 29.4007 -3.37711 -3.16893 -2.05796 -0.390892 -0.44705 0.610656 -3.53316 
151 1.78335 3.02178 30.6875 -3.32016 -3.62116 -2.19766 -0.256284 -0.439139 0.0835985 -3.52955 
152 1.74704 3.04227 33.2577 -3.26542 -3.55325 -1.98213 -0.232077 -0.451772 0.0637511 -3.52954 
153 1.55284 5.1963 31.9667 -2.85905 -3.64549 -1.8869 -0.0933814 -0.881516 -0.311863 -3.5331 
154 3.75463 3.91165 31.9683 -3.35689 -3.16426 -1.87852 -0.363407 -0.480573 0.581636 -3.5331 
155 -0.462131 4.30486 33.2524 -3.59409 -4.49242 -2.26012 0.0962258 -0.906075 -0.320089 -3.53396 
156 -0.512916 4.29984 35.8256 -3.53403 -4.33814 -2.01732 0.096905 -0.900738 -0.340928 -3.53423 
157 -0.730452 6.45711 34.5283 -3.10899 -4.24713 -1.89358 0.126743 -1.3479 -0.458167 -3.53362 
158 1.49062 5.21341 34.5378 -2.83694 -3.57318 -1.67873 -0.070862 -0.891837 -0.342176 -3.53307 
159 -0.806562 6.44921 37.1021 -3.05913 -4.09389 -1.65319 0.128936 -1.33985 -0.483913 -3.53389 
160 3.70739 3.9551 34.5393 -3.30422 -3.12462 -1.67141 -0.338757 -0.506661 0.556933 -3.53307 
161 1.711 3.06267 35.8313 -3.16649 -3.44142 -1.74528 -0.212215 -0.456474 0.0525926 -3.5296 
162 1.67539 3.08308 38.408 -3.01786 -3.28386 -1.49783 -0.197892 -0.452943 0.0496985 -3.52976 
163 1.42886 5.2306 37.1122 -2.76493 -3.45237 -1.45006 -0.0558757 -0.892297 -0.356969 -3.53313 
164 3.66064 3.99843 37.1136 -3.20108 -3.03572 -1.44325 -0.319802 -0.519966 0.541695 -3.53312 
165 -0.563309 4.29487 38.402 -3.41739 -4.13866 -1.7657 0.0963718 -0.892196 -0.352259 -3.53458 
166 -0.61321 4.28977 40.981 -3.2517 -3.90998 -1.51756 0.0967627 -0.879971 -0.363149 -3.53493 
167 -0.882079 6.4416 39.6791 -2.94474 -3.88121 -1.40692 0.128251 -1.32654 -0.496903 -3.53426 
168 1.3678 5.24806 39.6897 -2.6325 -3.27834 -1.21273 -0.0488716 -0.881703 -0.359575 -3.5333 
169 -0.956894 6.43398 42.2584 -2.77416 -3.62911 -1.17234 0.127319 -1.30798 -0.509995 -3.53462 
170 3.61461 4.04177 39.6909 -3.03729 -2.89252 -1.20638 -0.307006 -0.521787 0.534503 -3.53329 
171 1.64023 3.10341 40.9872 -2.82799 -3.08946 -1.24749 -0.187497 -0.446534 0.0469928 -3.53 
172 1.60543 3.12352 43.5685 -2.60686 -2.86622 -0.991898 -0.178566 -0.443898 0.0360583 -3.53027 
173 1.30749 5.26564 42.2695 -2.44611 -3.06025 -0.976817 -0.0470913 -0.866644 -0.3645 -3.53355 
174 3.56926 4.08505 42.2706 -2.82033 -2.70347 -0.972569 -0.298244 -0.52203 0.524457 -3.53354 
175 -0.662604 4.28436 43.562 -3.04816 -3.66239 -1.27221 0.0991758 -0.864971 -0.38211 -3.53524 
176 -0.711657 4.27858 46.1444 -2.8186 -3.39362 -1.0095 0.102819 -0.849321 -0.414707 -3.5355 
177 -1.03107 6.42615 44.8392 -2.55436 -3.34444 -0.955891 0.127468 -1.28657 -0.528565 -3.53496 
178 1.24779 5.28317 44.8508 -2.21294 -2.80282 -0.743945 -0.0488538 -0.855687 -0.38335 -3.53387 
179 -1.10499 6.41843 47.4202 -2.29205 -3.0155 -0.769048 0.129605 -1.2668 -0.542986 -3.53529 
180 3.52438 4.12819 44.8518 -2.55558 -2.47593 -0.747657 -0.290931 -0.529675 0.502925 -3.53384 
181 1.57079 3.14339 46.1515 -2.3591 -2.61651 -0.713645 -0.17079 -0.452669 0.00844739 -3.53054 
182 1.53616 3.16341 48.7363 -2.08504 -2.35865 -0.342819 -0.182264 -0.474914 -0.0316714 -3.53016 
183 1.18824 5.30067 47.433 -1.93941 -2.50345 -0.512721 -0.0626081 -0.861546 -0.428819 -3.53412 
184 3.4797 4.17124 47.4337 -2.23712 -2.21949 -0.539749 -0.285317 -0.555365 0.458447 -3.53404 
185 -0.760857 4.27346 48.7284 -2.59831 -3.07076 -0.661813 0.096768 -0.838381 -0.422225 -3.53518 
186 -0.811621 4.26877 51.3169 -1.9883 -2.35086 0.314413 0.0839071 -0.842548 -0.652939 -3.53805 
187 -1.17889 6.41384 50.0002 -2.05352 -2.54087 -0.328624 0.0841577 -1.27314 -0.621123 -3.53574 
188 1.12775 5.31799 50.0156 -1.56806 -2.07732 -0.0177749 -0.109479 -0.94266 -0.596126 -3.53484 
189 -1.25707 6.40546 52.5877 -1.61255 -2.4869 0.643187 0.175846 -1.31635 -0.613018 -3.53281 
190 3.43505 4.21346 50.0156 -1.7582 -1.85187 -0.0368927 -0.308747 -0.666222 0.31236 -3.5349 
191 1.50027 3.18358 51.3264 -1.43161 -1.70116 0.659078 -0.172619 -0.549117 -0.132888 -3.53272 
192 1.46587 3.20964 53.9052 0.0267305 0.95402 -0.795765 0.566315 -0.560964 0.139002 -3.37565 
193 1.06597 5.33731 52.6041 -1.24911 -1.89852 0.44159 -0.236969 -0.801327 -0.410865 -3.52779 
194 3.38747 4.26008 52.6041 -1.4101 -1.71354 0.389922 -0.390667 -0.639458 0.58731 -3.52746 
195 -0.866323 4.2769 53.8949 -0.0508643 -0.206082 -1.18039 0.0793667 -1.26166 1.02745 -3.38132 
196 1.3298 4.1174 -56.3442 5.06941 2.90561 1.60242 -1.25471 -0.273894 0.11026 -2.79034 
197 -1.33605 6.40133 55.1665 4.18011 2.79743 1.29 0.31993 -1.52318 0.197842 -3.26107 
198 1.00488 5.36129 55.1754 5.64202 6.63184 2.70772 0.369833 -0.636465 -0.032658 -3.15047 
199 1.98371 6.26223 -55.1334 6.93985 9.11552 2.92908 0.134193 -0.847902 -0.525652 -3.02309 
200 3.34328 4.30996 55.1754 5.53064 7.35761 2.86909 0.118715 -0.278648 0.562611 -3.15115 
201 2.87095 2.09325 -56.362 4.04253 6.00649 1.88097 -3.16453 0.25263 0.341776 -2.79939 
202 2.84551 2.1252 -53.8874 0.164946 0.763244 -3.02659 -0.982123 -0.732825 -0.162369 -3.51266 
203 3.53831 4.21674 -55.1525 6.03165 6.2739 1.75936 0.302436 -1.21952 -0.0444756 -3.1433 
204 5.07312 2.13635 -55.1525 6.04996 7.03885 2.00316 0.446067 -0.528123 0.0805257 -3.14511 
205 1.29262 4.16451 -53.8815 0.861227 -0.348337 -3.67516 -0.4089 -0.573884 0.839011 -3.51412 
206 1.24176 4.17585 -51.3147 -1.28728 -1.91151 -0.37883 -0.214943 -0.881703 0.220304 -3.53904 
207 1.90264 6.26187 -52.5941 -0.91822 -1.45698 -0.573328 -0.184228 -1.16812 0.819999 -3.52792 
208 3.4607 4.22944 -52.6036 -0.749094 -0.925934 0.095396 -0.677549 -0.496205 0.191284 -3.53019 
209 1.82403 6.27282 -50.0101 -1.6436 -2.33199 -0.271277 -0.195307 -1.27305 0.431753 -3.53675 
210 5.01221 2.17771 -52.6036 -1.34203 -0.348619 0.0545764 -0.502591 0.0190765 0.991449 -3.52953 
211 2.80522 2.14769 -51.32 -1.10372 -0.947092 -0.116458 -0.278284 -0.334288 0.262364 -3.53415 
212 2.77264 2.17449 -48.7406 -1.97822 -1.84135 -0.557767 -0.291803 -0.206034 0.340678 -3.53087 
213 3.40036 4.25787 -50.02 -1.43525 -1.6573 -0.148312 -0.409844 -0.700094 0.288588 -3.53496 
214 4.971 2.23184 -50.02 -1.84807 -1.27594 -0.12053 -0.296858 0.0292762 0.83706 -3.535 
215 1.19008 4.18031 -48.7356 -2.18838 -2.7631 -0.801597 -0.180518 -0.833548 0.27919 -3.53641 
216 1.1409 4.18616 -46.1544 -2.6497 -3.19495 -0.991728 -0.162328 -0.821101 0.39876 -3.53606 
217 1.74943 6.27852 -47.4308 -2.11103 -2.83558 -0.69044 -0.213299 -1.23073 0.544203 -3.5359 
218 3.3458 4.28735 -47.4413 -1.90543 -2.20922 -0.577183 -0.300862 -0.625035 0.339514 -3.53415 
219 1.67606 6.29017 -44.8498 -2.48247 -3.19221 -0.878464 -0.19969 -1.23508 0.603191 -3.53536 
220 4.93554 2.2843 -47.4405 -2.32944 -1.7887 -0.552005 -0.211091 0.119546 0.866253 -3.5342 
221 2.74308 2.20159 -46.1596 -2.37715 -2.26933 -0.752142 -0.229875 -0.147357 0.394437 -3.53075 
222 2.71521 2.23011 -43.5781 -2.69172 -2.59052 -0.963268 -0.212777 -0.137772 0.414581 -3.53038 
223 3.29287 4.31944 -44.8609 -2.24588 -2.57263 -0.731504 -0.259982 -0.6131 0.374491 -3.53393 
224 4.9032 2.33727 -44.8598 -2.67 -2.14221 -0.732881 -0.176048 0.155076 0.897393 -3.53393 
225 1.09226 4.19453 -43.5727 -2.98975 -3.51397 -1.2197 -0.14848 -0.830255 0.425007 -3.53554 
226 1.04337 4.20368 -40.9918 -3.25046 -3.78846 -1.4604 -0.145355 -0.844601 0.432214 -3.5351 
227 1.60275 6.30357 -42.269 -2.76622 -3.4976 -1.10543 -0.198674 -1.25375 0.619288 -3.53485 
228 3.24072 4.35304 -42.2801 -2.52109 -2.8679 -0.931361 -0.242576 -0.616957 0.391926 -3.53361 
229 1.52883 6.31769 -39.6894 -2.97773 -3.76412 -1.34889 -0.205353 -1.27408 0.623303 -3.5344 
230 4.87224 2.39117 -42.279 -2.95539 -2.42309 -0.938813 -0.164894 0.165238 0.922416 -3.5336 
231 2.68772 2.25942 -40.9971 -2.9484 -2.85127 -1.19283 -0.209456 -0.13731 0.428562 -3.53007 
232 2.6602 2.28938 -38.4177 -3.16184 -3.06601 -1.43418 -0.213932 -0.138047 0.440052 -3.52982 
233 3.18865 4.38773 -39.7003 -2.73916 -3.10722 -1.15489 -0.236918 -0.623431 0.402113 -3.53334 
234 4.84172 2.44609 -39.6992 -3.19292 -2.64014 -1.16266 -0.165358 0.168628 0.944139 -3.53333 
235 0.993951 4.21315 -38.4126 -3.45036 -4.03228 -1.71066 -0.149837 -0.858487 0.433758 -3.53468 
236 0.943972 4.22288 -35.8357 -3.59116 -4.24206 -1.96529 -0.159131 -0.870053 0.428742 -3.5343 
237 1.45414 6.33236 -37.1121 -3.12002 -3.98721 -1.60037 -0.21608 -1.29131 0.618498 -3.53399 
238 3.13643 4.4234 -37.1226 -2.90074 -3.29053 -1.38832 -0.24027 -0.631383 0.404119 -3.53315 
239 1.37874 6.34758 -34.5378 -3.19396 -4.15575 -1.84626 -0.226684 -1.30484 0.599953 -3.53368 
240 4.81138 2.50202 -37.1214 -3.38028 -2.79619 -1.39516 -0.175722 0.167042 0.958151 -3.53314 
241 2.63255 2.31993 -35.8406 -3.33139 -3.23485 -1.67977 -0.225641 -0.141396 0.445774 -3.52964 
242 2.60479 2.35101 -33.2664 -3.45276 -3.35545 -1.91943 -0.244411 -0.150632 0.441881 -3.52955 
243 3.08399 4.45994 -34.5477 -3.00379 -3.41635 -1.61816 -0.252016 -0.643994 0.392707 -3.53306 
244 4.78115 2.55884 -34.5464 -3.51251 -2.89312 -1.6244 -0.196123 0.155519 0.959362 -3.53305 
245 0.893516 4.23288 -33.262 -3.67233 -4.40884 -2.21296 -0.169973 -0.879407 0.413152 -3.534 
246 0.842674 4.24304 -30.6916 -3.70135 -4.5299 -2.44023 -0.179419 -0.887216 0.385953 -3.5338 
247 1.30276 6.36321 -31.967 -3.20953 -4.26772 -2.07037 -0.234164 -1.31557 0.565368 -3.5335 
248 3.03124 4.49705 -31.976 -3.05315 -3.4918 -1.83183 -0.27051 -0.662126 0.366731 -3.53307 
249 1.22628 6.3789 -29.3998 -3.18466 -4.33284 -2.26173 -0.237474 -1.32393 0.518299 -3.53343 
250 4.75088 2.61626 -31.9746 -3.59228 -2.94018 -1.83827 -0.224998 0.131652 0.947612 -3.53305 
251 2.57685 2.38241 -30.6954 -3.52754 -3.43191 -2.142 -0.26851 -0.166326 0.428167 -3.52954 
252 2.54859 2.4139 -28.1277 -3.56431 -3.47467 -2.33912 -0.295014 -0.18605 0.407983 -3.52957 
253 2.97804 4.53432 -29.4077 -3.06131 -3.53083 -2.0211 -0.292756 -0.683265 0.330698 -3.53311 
254 4.72031 2.67394 -29.4061 -3.63016 -2.95257 -2.0282 -0.25895 0.0982501 0.927322 -3.5331 
255 0.791506 4.25315 -28.1245 -3.69297 -4.61117 -2.63752 -0.18566 -0.89377 0.350297 -3.53368 
256 0.740044 4.26298 -25.5605 -3.66246 -4.66241 -2.8013 -0.18803 -0.899026 0.310799 -3.53363 
257 1.14934 6.39426 -26.8357 -3.13704 -4.36486 -2.41709 -0.236719 -1.32991 0.464856 -3.53343 
258 2.92423 4.57134 -26.8424 -3.04256 -3.54714 -2.18263 -0.315449 -0.704316 0.290621 -3.53317 
259 1.072 6.40896 -24.2744 -3.0801 -4.37615 -2.53883 -0.232292 -1.33371 0.410459 -3.53348 
260 4.68914 2.7316 -26.8407 -3.63864 -2.94484 -2.19021 -0.294298 0.0602503 0.903467 -3.53315 
261 2.5199 2.44526 -25.563 -3.57411 -3.49536 -2.50684 -0.321123 -0.206785 0.385316 -3.52962 
262 2.4907 2.47635 -23.0009 -3.56676 -3.50344 -2.64502 -0.344899 -0.226363 0.363045 -3.52967 
263 2.86974 4.60783 -24.2799 -3.00884 -3.55095 -2.31656 -0.335964 -0.723168 0.251047 -3.53323 
264 4.65717 2.78901 -24.2781 -3.62849 -2.92788 -2.32406 -0.328306 0.0219689 0.879609 -3.5332 
265 0.688315 4.27234 -22.9992 -3.62173 -4.6931 -2.93284 -0.186584 -0.902976 0.271286 -3.53361 
266 0.636349 4.28111 -20.44 -3.57861 -4.71074 -3.03596 -0.181725 -0.905778 0.234106 -3.53361 
267 0.994292 6.42277 -21.7153 -3.02256 -4.37584 -2.632 -0.22463 -1.33585 0.358616 -3.53355 
268 2.81454 4.64361 -21.7197 -2.96867 -3.54895 -2.42503 -0.352758 -0.738889 0.214487 -3.53327 
269 0.916271 6.43555 -19.1579 -2.96929 -4.36998 -2.70217 -0.214204 -1.33694 0.311034 -3.53361 
270 4.62429 2.84605 -21.7178 -3.60771 -2.90872 -2.43185 -0.35942 -0.0138612 0.857742 -3.53324 
271 2.46095 2.50706 -20.4411 -3.54965 -3.50541 -2.75599 -0.365336 -0.243683 0.342711 -3.52971 
272 2.43065 2.53735 -17.8831 -3.52776 -3.5053 -2.84326 -0.382132 -0.258427 0.324887 -3.52975 
273 2.75865 4.67859 -19.1614 -2.92745 -3.54512 -2.51114 -0.365247 -0.751389 0.181911 -3.5333 
274 4.59044 2.90263 -19.1594 -3.58174 -2.89134 -2.51691 -0.387 -0.0459738 0.838707 -3.53327 
275 0.584177 4.2892 -17.8825 -3.53765 -4.72056 -3.11533 -0.173987 -0.907695 0.200324 -3.53362 
276 0.531833 4.29659 -15.3264 -3.50108 -4.72597 -3.17547 -0.163924 -0.908988 0.170147 -3.53364 
277 0.837984 6.44724 -16.6019 -2.92253 -4.36221 -2.7544 -0.201505 -1.33746 0.268167 -3.53368 
278 2.70211 4.71272 -16.6045 -2.88827 -3.54169 -2.57829 -0.373486 -0.761026 0.153363 -3.53332 
279 0.759475 6.45781 -14.047 -2.88294 -4.35458 -2.79283 -0.187013 -1.33773 0.229744 -3.53373 
280 4.55565 2.95871 -16.6025 -3.55399 -2.87771 -2.58287 -0.410971 -0.0741097 0.822635 -3.5333 
281 2.39983 2.56718 -15.3266 -3.50422 -3.50531 -2.91062 -0.395417 -0.270735 0.309583 -3.52978 
282 2.36852 2.59656 -12.7712 -3.48083 -3.50656 -2.9616 -0.40553 -0.280959 0.296529 -3.5298 
283 2.64495 4.74599 -14.0489 -2.85262 -3.53973 -2.62972 -0.377864 -0.768324 0.128422 -3.53334 
284 4.51993 3.01427 -14.0468 -3.52647 -2.86853 -2.63313 -0.431549 -0.0985772 0.809274 -3.53332 
285 0.479349 4.30325 -12.7713 -3.46975 -4.72906 -3.22027 -0.152048 -0.90986 0.143298 -3.53365 
286 0.426754 4.30919 -10.2171 -3.44373 -4.73104 -3.25285 -0.138799 -0.910445 0.119269 -3.53366 
287 0.680784 6.46728 -11.4929 -2.85029 -4.34811 -2.82066 -0.17115 -1.33792 0.195147 -3.53378 
288 2.58725 4.77841 -11.4942 -2.82108 -3.5397 -2.66828 -0.378887 -0.77381 0.106488 -3.53335 
289 0.601947 6.47564 -8.93932 -2.82406 -4.34326 -2.84022 -0.154259 -1.33811 0.163637 -3.53381 
290 4.48333 3.0693 -11.4921 -3.50026 -2.86383 -2.67061 -0.449065 -0.11994 0.798205 -3.53333 
291 2.33675 2.62547 -10.2166 -3.45858 -3.50952 -2.99922 -0.412877 -0.289514 0.285347 -3.52981 
292 2.30455 2.65393 -7.66269 -3.43795 -3.5143 -3.0259 -0.417838 -0.296802 0.275636 -3.52982 
293 2.52903 4.80997 -8.94015 -2.79368 -3.54172 -2.69629 -0.377046 -0.777947 0.086923 -3.53336 
294 4.4459 3.1238 -8.93802 -3.4759 -2.86333 -2.69768 -0.463865 -0.138829 0.78896 -3.53334 
295 0.374076 4.31441 -7.6634 -3.42276 -4.73259 -3.27559 -0.124526 -0.910823 0.0974829 -3.53368 
296 0.321341 4.31892 -5.11011 -3.40647 -4.73409 -3.29021 -0.109493 -0.911046 0.0773725 -3.53368 
297 0.523 6.48291 -6.3862 -2.80365 -4.3402 -2.85317 -0.136604 -1.33833 0.134482 -3.53384 
298 2.47035 4.84069 -6.38661 -2.77027 -3.54572 -2.71558 -0.372757 -0.781117 0.0691294 -3.53337 
299 0.443977 6.4891 -3.83335 -2.78856 -4.33894 -2.86067 -0.118381 -1.33862 0.107 -3.53386 
300 4.40768 3.17777 -6.38447 -3.45362 -2.86664 -2.71613 -0.476247 -0.155849 0.781096 -3.53335 
301 2.27196 2.68193 -5.1092 -3.41914 -3.52087 -3.04346 -0.420721 -0.30318 0.267024 -3.52983 
302 2.23899 2.70947 -2.55598 -3.40224 -3.52913 -3.0532 -0.421754 -0.308955 0.259171 -3.52984 
303 2.41123 4.87058 -3.8334 -2.75065 -3.55162 -2.72747 -0.366342 -0.783638 0.0525661 -3.53337 
304 4.3687 3.23118 -3.83124 -3.4335 -2.87338 -2.72728 -0.486442 -0.171541 0.774214 -3.53336 
305 0.268572 4.32273 -2.55706 -3.39458 -4.73572 -3.29788 -0.0938904 -0.911167 0.0584161 -3.53369 
306 0.364907 6.49423 -1.28064 -2.77843 -4.33945 -2.86343 -0.0997404 -1.33901 0.0805731 -3.53387 
307 2.35173 4.89964 -1.28036 -2.73466 -3.55927 -2.73286 -0.358039 -0.785776 0.0367462 -3.53337 
308 4.329 3.28405 -1.2782 -3.41558 -2.88324 -2.73198 -0.494604 -0.186379 0.767965 -3.53336 
309 2.43673 7.09182 -0.00396891 -2.21143 -3.35896 -2.40288 -0.319023 -1.19111 -0.176602 -3.53293 
310 0.435011 8.6692 -0.00432079 -2.24741 -4.01461 -2.49624 -0.101163 -1.72722 0.0903259 -3.53362 