LAMMPS (15 May 2015)
Processor partition = 4
------- This is Cu ---------
Reading restart file ...
  restart file = 15 May 2015, LAMMPS = 15 May 2015
  orthogonal box = (-100 -100 -156.15) to (100 100 156.15)
  1 by 1 by 1 MPI processor grid
  37664 atoms
WARNING: Resetting reneighboring criteria during minimization (../min.cpp:168)
Neighbor list info ...
  1 neighbor list requests
  update every 1 steps, delay 0 steps, check yes
  master list distance cutoff = 6.50679
Setting up minimization ...
Memory usage per processor = 25.009 Mbytes
Step TotEng PotEng KinEng Temp Press sxx syy szz sxy sxz syz 
       0      -129887.029007156583      -129887.029007156583                         0                         0      -107.343271923873274    -0.0897742663361029425    -0.0947603109808036748       1.08888509445782011     0.0056924359549260636   -0.00452796997903018566   -0.00329449784490329833 
     100      -129887.006366806076        -129887.0408715839     0.0345047778230420099    0.00708760794503547793      -107.403176956100168    -0.0896367739250821666    -0.0945488044486513801       1.08904078617578115     0.0053120199479917158   -0.00362620302813928663    -0.0030983341053154121 
     200      -129887.033987354764      -129887.049833712357     0.0158463575971223847    0.00325499183276109581      -107.537019112077417    -0.0893318601074436641    -0.0940727038285050499       1.08938737126801821    0.00434692460483540339   -0.00247377956851124216   -0.00272661091078749271 
     212      -129887.031522513673      -129887.049379644886     0.0178571312101723258    0.00366802376441443829      -107.557321553717799    -0.0892929028431024563    -0.0939907607732394235       1.08943751588925575    0.00420141286867389916   -0.00236161130330942619    -0.0026650254873098766 
Loop time of 21.3303 on 1 procs for 212 steps with 37664 atoms

Minimization stats:
  Stopping criterion = force tolerance
  Energy initial, next-to-last, final = 
        -129887.029007     -129887.049426      -129887.04938
  Force two-norm initial, final = 0.0469682 0.0277946
  Force max component initial, final = 0.00239666 0.00179979
  Final line search alpha, max atom move = 0 0
  Iterations, force evaluations = 212 212

Pair  time (%) = 20.3457 (95.384)
Neigh time (%) = 0.071595 (0.335648)
Comm  time (%) = 0.000873804 (0.00409653)
Outpt time (%) = 0.004529 (0.0212327)
Other time (%) = 0.907606 (4.255)

Nlocal:    37664 ave 37664 max 37664 min
Histogram: 1 0 0 0 0 0 0 0 0 0
Nghost:    0 ave 0 max 0 min
Histogram: 1 0 0 0 0 0 0 0 0 0
Neighs:    1.52303e+06 ave 1.52303e+06 max 1.52303e+06 min
Histogram: 1 0 0 0 0 0 0 0 0 0

Total # of neighbors = 1523032
Ave neighs/atom = 40.4373
Neighbor list builds = 1
Dangerous builds = 0
WARNING: Resetting reneighboring criteria during minimization (../min.cpp:168)
Setting up minimization ...
Memory usage per processor = 25.009 Mbytes
Step TotEng PotEng KinEng Temp Press sxx syy szz sxy sxz syz 
     212      -129887.049379644886      -129887.049379644886                         0                         0      -107.558848411987654    -0.0892902653518266726    -0.0939857335688304152       1.08944271473909571    0.00420162168536720483    -0.0023638647215597215   -0.00266418247061053597 
Loop time of 4.05312e-06 on 1 procs for 0 steps with 37664 atoms

Minimization stats:
  Stopping criterion = force tolerance
  Energy initial, next-to-last, final = 
         -129887.04938     -129887.049426      -129887.04938
  Force two-norm initial, final = 0.0277946 0.0277946
  Force max component initial, final = 0.00179979 0.00179979
  Final line search alpha, max atom move = 0 0
  Iterations, force evaluations = 0 0

Pair  time (%) = 0 (0)
Neigh time (%) = 0 (0)
Comm  time (%) = 0 (0)
Outpt time (%) = 0 (0)
Other time (%) = 4.05312e-06 (100)

Nlocal:    37664 ave 37664 max 37664 min
Histogram: 1 0 0 0 0 0 0 0 0 0
Nghost:    0 ave 0 max 0 min
Histogram: 1 0 0 0 0 0 0 0 0 0
Neighs:    1.52303e+06 ave 1.52303e+06 max 1.52303e+06 min
Histogram: 1 0 0 0 0 0 0 0 0 0

Total # of neighbors = 1523032
Ave neighs/atom = 40.4373
Neighbor list builds = 0
Dangerous builds = 0
