LAMMPS (15 May 2015)
Processor partition = 2
------- This is Cu ---------
Reading restart file ...
  restart file = 15 May 2015, LAMMPS = 15 May 2015
  orthogonal box = (-100 -100 -156.15) to (100 100 156.15)
  1 by 1 by 1 MPI processor grid
  37664 atoms
WARNING: Resetting reneighboring criteria during minimization (../min.cpp:168)
Neighbor list info ...
  1 neighbor list requests
  update every 1 steps, delay 0 steps, check yes
  master list distance cutoff = 6.50679
Setting up minimization ...
Memory usage per processor = 25.009 Mbytes
Step TotEng PotEng KinEng Temp Press sxx syy szz sxy sxz syz 
       0      -129887.198756791884      -129887.198756791884                         0                         0      -107.672696062192117    -0.0900509547868951488    -0.0926203573780727263       1.08979717688480471    0.00298294298228164636   -0.00247961631046663723   -0.00196344687187412822 
     100      -129887.213185750574      -129887.246039157093     0.0328534065232131967    0.00674840065018211897      -107.583625086487132    -0.0900049865284825168    -0.0931948022799374276       1.08957524428975838    0.00355940631629272442   -0.00206957914609824569   -0.00262455385613913567 
     200      -129887.251617879156      -129887.257632918598    0.00601503944399520412    0.00123554603283063981      -107.640026029479671    -0.0896269233489934425    -0.0933324559421013916       1.08981000402198003    0.00348541410192840673   -0.00137837131127779735   -0.00296041356379028297 
     212      -129887.251795800141      -129887.258407444795    0.00661164465250724948    0.00135809438939695154      -107.655091662415657    -0.0895702452197094934    -0.0933099053272295614       1.08985770091269041    0.00343296741533252736   -0.00130568403633477817   -0.00298437616790878579 
Loop time of 21.3303 on 1 procs for 212 steps with 37664 atoms

Minimization stats:
  Stopping criterion = force tolerance
  Energy initial, next-to-last, final = 
        -129887.198757     -129887.258344     -129887.258407
  Force two-norm initial, final = 0.169739 0.0168993
  Force max component initial, final = 0.0270487 0.000573759
  Final line search alpha, max atom move = 0 0
  Iterations, force evaluations = 212 212

Pair  time (%) = 20.0869 (94.1706)
Neigh time (%) = 0.0721011 (0.338021)
Comm  time (%) = 0.00084877 (0.00397917)
Outpt time (%) = 0.00451899 (0.0211857)
Other time (%) = 1.16597 (5.46623)

Nlocal:    37664 ave 37664 max 37664 min
Histogram: 1 0 0 0 0 0 0 0 0 0
Nghost:    0 ave 0 max 0 min
Histogram: 1 0 0 0 0 0 0 0 0 0
Neighs:    1.52303e+06 ave 1.52303e+06 max 1.52303e+06 min
Histogram: 1 0 0 0 0 0 0 0 0 0

Total # of neighbors = 1523032
Ave neighs/atom = 40.4373
Neighbor list builds = 1
Dangerous builds = 0
WARNING: Resetting reneighboring criteria during minimization (../min.cpp:168)
Setting up minimization ...
Memory usage per processor = 25.009 Mbytes
Step TotEng PotEng KinEng Temp Press sxx syy szz sxy sxz syz 
     212      -129887.258407444795      -129887.258407444795                         0                         0       -107.65565698526602    -0.0895683607915994523    -0.0933089293863881564       1.08985960330159681    0.00343328374097626307   -0.00130631676373890379   -0.00298452512488768182 
Loop time of 1.90735e-06 on 1 procs for 0 steps with 37664 atoms

Minimization stats:
  Stopping criterion = force tolerance
  Energy initial, next-to-last, final = 
        -129887.258407     -129887.258344     -129887.258407
  Force two-norm initial, final = 0.0168993 0.0168993
  Force max component initial, final = 0.000573759 0.000573759
  Final line search alpha, max atom move = 0 0
  Iterations, force evaluations = 0 0

Pair  time (%) = 0 (0)
Neigh time (%) = 0 (0)
Comm  time (%) = 0 (0)
Outpt time (%) = 0 (0)
Other time (%) = 1.90735e-06 (100)

Nlocal:    37664 ave 37664 max 37664 min
Histogram: 1 0 0 0 0 0 0 0 0 0
Nghost:    0 ave 0 max 0 min
Histogram: 1 0 0 0 0 0 0 0 0 0
Neighs:    1.52303e+06 ave 1.52303e+06 max 1.52303e+06 min
Histogram: 1 0 0 0 0 0 0 0 0 0

Total # of neighbors = 1523032
Ave neighs/atom = 40.4373
Neighbor list builds = 0
Dangerous builds = 0
