LAMMPS (15 May 2015)
Processor partition = 7
------- This is Cu ---------
Reading restart file ...
  restart file = 15 May 2015, LAMMPS = 15 May 2015
  orthogonal box = (-100 -100 -156.15) to (100 100 156.15)
  1 by 1 by 1 MPI processor grid
  37664 atoms
WARNING: Resetting reneighboring criteria during minimization (../min.cpp:168)
Neighbor list info ...
  1 neighbor list requests
  update every 1 steps, delay 0 steps, check yes
  master list distance cutoff = 6.50679
Setting up minimization ...
Memory usage per processor = 25.009 Mbytes
Step TotEng PotEng KinEng Temp Press sxx syy szz sxy sxz syz 
       0      -129886.950662279225      -129886.950662279225                         0                         0      -107.485037532159836    -0.0900994258135300735    -0.0928017664036809437       1.08844606275231692    0.00263245389310345782   -0.00203748442256957915     0.0033500049767911798 
     100      -129886.945693646427      -129887.020897884257      0.075204237827052059     0.0154476622413550688      -107.569637973727524    -0.0896429532467160062    -0.0922441519736351273       1.08814472143305485    0.00274339161797523606  -0.000638472636284170923    0.00332139016948576789 
     200      -129887.036887746959      -129887.056507904315     0.0196201573495421097    0.00403016602009817222      -107.634435379853542    -0.0893015259484460366    -0.0918634602845780635       1.08796851060270616     0.0018145305037208482   0.000435360629857091267    0.00358620296390153468 
     212      -129887.038112691109      -129887.058934586792     0.0208218956882806686    0.00427701444906586348      -107.647394725202275    -0.0892626729971949806    -0.0917973077159395107       1.08797268556945492    0.00167791631133377603   0.000530075885269259018    0.00363094801299513508 
Loop time of 21.3303 on 1 procs for 212 steps with 37664 atoms

Minimization stats:
  Stopping criterion = force tolerance
  Energy initial, next-to-last, final = 
        -129886.950662     -129887.058737     -129887.058935
  Force two-norm initial, final = 0.365761 0.0299408
  Force max component initial, final = 0.045806 0.0015988
  Final line search alpha, max atom move = 0 0
  Iterations, force evaluations = 212 212

Pair  time (%) = 20.1302 (94.3735)
Neigh time (%) = 0.0717971 (0.336597)
Comm  time (%) = 0.000854015 (0.00400376)
Outpt time (%) = 0.00452971 (0.021236)
Other time (%) = 1.12297 (5.26465)

Nlocal:    37664 ave 37664 max 37664 min
Histogram: 1 0 0 0 0 0 0 0 0 0
Nghost:    0 ave 0 max 0 min
Histogram: 1 0 0 0 0 0 0 0 0 0
Neighs:    1.52297e+06 ave 1.52297e+06 max 1.52297e+06 min
Histogram: 1 0 0 0 0 0 0 0 0 0

Total # of neighbors = 1522967
Ave neighs/atom = 40.4356
Neighbor list builds = 1
Dangerous builds = 0
WARNING: Resetting reneighboring criteria during minimization (../min.cpp:168)
Setting up minimization ...
Memory usage per processor = 25.009 Mbytes
Step TotEng PotEng KinEng Temp Press sxx syy szz sxy sxz syz 
     212      -129887.058934586792      -129887.058934586792                         0                         0      -107.649175083046487    -0.0892592658355538943    -0.0917907912927281855       1.08797776122497702    0.00167857073876161926   0.000527618769049563929     0.0036320131625049829 
Loop time of 5.00679e-06 on 1 procs for 0 steps with 37664 atoms

Minimization stats:
  Stopping criterion = force tolerance
  Energy initial, next-to-last, final = 
        -129887.058935     -129887.058737     -129887.058935
  Force two-norm initial, final = 0.0299408 0.0299408
  Force max component initial, final = 0.0015988 0.0015988
  Final line search alpha, max atom move = 0 0
  Iterations, force evaluations = 0 0

Pair  time (%) = 0 (0)
Neigh time (%) = 0 (0)
Comm  time (%) = 0 (0)
Outpt time (%) = 0 (0)
Other time (%) = 5.00679e-06 (100)

Nlocal:    37664 ave 37664 max 37664 min
Histogram: 1 0 0 0 0 0 0 0 0 0
Nghost:    0 ave 0 max 0 min
Histogram: 1 0 0 0 0 0 0 0 0 0
Neighs:    1.52297e+06 ave 1.52297e+06 max 1.52297e+06 min
Histogram: 1 0 0 0 0 0 0 0 0 0

Total # of neighbors = 1522967
Ave neighs/atom = 40.4356
Neighbor list builds = 0
Dangerous builds = 0
