LAMMPS (15 May 2015)
Processor partition = 8
------- This is Cu ---------
Reading restart file ...
  restart file = 15 May 2015, LAMMPS = 15 May 2015
  orthogonal box = (-100 -100 -156.15) to (100 100 156.15)
  1 by 1 by 1 MPI processor grid
  37664 atoms
WARNING: Resetting reneighboring criteria during minimization (../min.cpp:168)
Neighbor list info ...
  1 neighbor list requests
  update every 1 steps, delay 0 steps, check yes
  master list distance cutoff = 6.50679
Setting up minimization ...
Memory usage per processor = 25.009 Mbytes
Step TotEng PotEng KinEng Temp Press sxx syy szz sxy sxz syz 
       0      -129887.112501674987      -129887.112501674987                         0                         0      -107.577890276516186    -0.0897474459564000515    -0.0914807210372677454       1.08755530758514474    0.00211314404167381323   1.70173783654755473e-05    0.00573388465316139115 
     100      -129887.082824918893       -129887.13852499862     0.0557000797316464374      0.011441323565964126      -107.583083233705239    -0.0895766733383700359    -0.0913857187292274747       1.08733328252278239    0.00179733492879234516   0.000768035628946301752    0.00568655773015844072 
     200      -129887.146816578446      -129887.167407208079     0.0205906296332640168    0.00422951021248276458      -107.627571685838518    -0.0892516855959484406    -0.0910990267854792091       1.08709641118719857    0.00091641345065542328    0.00164306631250989025    0.00585598183319316345 
     212      -129887.147401716124      -129887.169386888607     0.0219851724862877469    0.00451596251353722934      -107.637627649402788    -0.0892159155338995563    -0.0910446399713325111       1.08709097425370915   0.000787790127536670262    0.00171981679384790634    0.00588737398217415234 
Loop time of 21.3304 on 1 procs for 212 steps with 37664 atoms

Minimization stats:
  Stopping criterion = force tolerance
  Energy initial, next-to-last, final = 
        -129887.112502     -129887.169228     -129887.169387
  Force two-norm initial, final = 0.0700063 0.0307703
  Force max component initial, final = 0.00781079 0.00210499
  Final line search alpha, max atom move = 0 0
  Iterations, force evaluations = 212 212

Pair  time (%) = 20.0524 (94.0087)
Neigh time (%) = 0.071738 (0.336319)
Comm  time (%) = 0.000819921 (0.00384392)
Outpt time (%) = 0.0045259 (0.0212181)
Other time (%) = 1.20089 (5.62994)

Nlocal:    37664 ave 37664 max 37664 min
Histogram: 1 0 0 0 0 0 0 0 0 0
Nghost:    0 ave 0 max 0 min
Histogram: 1 0 0 0 0 0 0 0 0 0
Neighs:    1.52294e+06 ave 1.52294e+06 max 1.52294e+06 min
Histogram: 1 0 0 0 0 0 0 0 0 0

Total # of neighbors = 1522935
Ave neighs/atom = 40.4348
Neighbor list builds = 1
Dangerous builds = 0
WARNING: Resetting reneighboring criteria during minimization (../min.cpp:168)
Setting up minimization ...
Memory usage per processor = 25.009 Mbytes
Step TotEng PotEng KinEng Temp Press sxx syy szz sxy sxz syz 
     212      -129887.169386888607      -129887.169386888607                         0                         0      -107.639507472204656    -0.0892121728390964097    -0.0910377916899318268       1.08709622049481403   0.000788573752424787285    0.00171714766525517281    0.00588846980052863938 
Loop time of 4.05312e-06 on 1 procs for 0 steps with 37664 atoms

Minimization stats:
  Stopping criterion = force tolerance
  Energy initial, next-to-last, final = 
        -129887.169387     -129887.169228     -129887.169387
  Force two-norm initial, final = 0.0307703 0.0307703
  Force max component initial, final = 0.00210499 0.00210499
  Final line search alpha, max atom move = 0 0
  Iterations, force evaluations = 0 0

Pair  time (%) = 0 (0)
Neigh time (%) = 0 (0)
Comm  time (%) = 0 (0)
Outpt time (%) = 0 (0)
Other time (%) = 4.05312e-06 (100)

Nlocal:    37664 ave 37664 max 37664 min
Histogram: 1 0 0 0 0 0 0 0 0 0
Nghost:    0 ave 0 max 0 min
Histogram: 1 0 0 0 0 0 0 0 0 0
Neighs:    1.52294e+06 ave 1.52294e+06 max 1.52294e+06 min
Histogram: 1 0 0 0 0 0 0 0 0 0

Total # of neighbors = 1522935
Ave neighs/atom = 40.4348
Neighbor list builds = 0
Dangerous builds = 0
