LAMMPS (15 May 2015)
Processor partition = 5
------- This is Cu ---------
Reading restart file ...
  restart file = 15 May 2015, LAMMPS = 15 May 2015
  orthogonal box = (-100 -100 -156.15) to (100 100 156.15)
  1 by 1 by 1 MPI processor grid
  37664 atoms
WARNING: Resetting reneighboring criteria during minimization (../min.cpp:168)
Neighbor list info ...
  1 neighbor list requests
  update every 1 steps, delay 0 steps, check yes
  master list distance cutoff = 6.50679
Setting up minimization ...
Memory usage per processor = 25.009 Mbytes
Step TotEng PotEng KinEng Temp Press sxx syy szz sxy sxz syz 
       0      -129886.889247315572      -129886.889247315572                         0                         0      -107.356048897285476    -0.0899144161869941533    -0.0945824764192902817       1.08895505377841406    0.00461763670409961243   -0.00448967439965769141   -0.00157517439159824682 
     100       -129886.88153535733      -129886.946332734922     0.0647973775914926081     0.0133099946503129722       -107.47225972879825    -0.0896451311231863529    -0.0939482266471162453        1.0890305772820017     0.0045754754707531568   -0.00303658724794481213   -0.00124176902194170452 
     200      -129886.953861045433      -129886.971770455493     0.0179094100567389405    0.00367876233430708063      -107.589303641438889    -0.0893384680417525778    -0.0934290576855468374       1.08919082215867058    0.00358151038798409146   -0.00174879926978050641  -0.000808028492067805471 
     212      -129886.953585845709       -129886.97315259176     0.0195667460515673575    0.00401919483396789325      -107.607832658671271    -0.0892994509155761451    -0.0933446652912735264       1.08922351675183671    0.00343409436057840172    -0.0016281219736735352  -0.000742223022485041903 
Loop time of 21.3303 on 1 procs for 212 steps with 37664 atoms

Minimization stats:
  Stopping criterion = force tolerance
  Energy initial, next-to-last, final = 
        -129886.889247     -129886.973042     -129886.973153
  Force two-norm initial, final = 0.34946 0.02906
  Force max component initial, final = 0.044333 0.00164814
  Final line search alpha, max atom move = 0 0
  Iterations, force evaluations = 212 212

Pair  time (%) = 18.7826 (88.0559)
Neigh time (%) = 0.066539 (0.311946)
Comm  time (%) = 0.000718832 (0.00337)
Outpt time (%) = 0.00337791 (0.0158362)
Other time (%) = 2.47708 (11.613)

Nlocal:    37664 ave 37664 max 37664 min
Histogram: 1 0 0 0 0 0 0 0 0 0
Nghost:    0 ave 0 max 0 min
Histogram: 1 0 0 0 0 0 0 0 0 0
Neighs:    1.52302e+06 ave 1.52302e+06 max 1.52302e+06 min
Histogram: 1 0 0 0 0 0 0 0 0 0

Total # of neighbors = 1523023
Ave neighs/atom = 40.4371
Neighbor list builds = 1
Dangerous builds = 0
WARNING: Resetting reneighboring criteria during minimization (../min.cpp:168)
Setting up minimization ...
Memory usage per processor = 25.009 Mbytes
Step TotEng PotEng KinEng Temp Press sxx syy szz sxy sxz syz 
     212       -129886.97315259176       -129886.97315259176                         0                         0      -107.609505696051741     -0.089296482886132969    -0.0933389823653011097       1.08922896087842069    0.00343444161490965693   -0.00163055240163655275  -0.000741248034433115012 
Loop time of 3.09944e-06 on 1 procs for 0 steps with 37664 atoms

Minimization stats:
  Stopping criterion = force tolerance
  Energy initial, next-to-last, final = 
        -129886.973153     -129886.973042     -129886.973153
  Force two-norm initial, final = 0.0434249 0.0434249
  Force max component initial, final = 0.00541621 0.00541621
  Final line search alpha, max atom move = 0 0
  Iterations, force evaluations = 0 0

Pair  time (%) = 0 (0)
Neigh time (%) = 0 (0)
Comm  time (%) = 0 (0)
Outpt time (%) = 0 (0)
Other time (%) = 3.09944e-06 (100)

Nlocal:    37664 ave 37664 max 37664 min
Histogram: 1 0 0 0 0 0 0 0 0 0
Nghost:    0 ave 0 max 0 min
Histogram: 1 0 0 0 0 0 0 0 0 0
Neighs:    1.52302e+06 ave 1.52302e+06 max 1.52302e+06 min
Histogram: 1 0 0 0 0 0 0 0 0 0

Total # of neighbors = 1523023
Ave neighs/atom = 40.4371
Neighbor list builds = 0
Dangerous builds = 0
