LAMMPS (15 May 2015)
Processor partition = 3
------- This is Cu ---------
Reading restart file ...
  restart file = 15 May 2015, LAMMPS = 15 May 2015
  orthogonal box = (-100 -100 -156.15) to (100 100 156.15)
  1 by 1 by 1 MPI processor grid
  37664 atoms
WARNING: Resetting reneighboring criteria during minimization (../min.cpp:168)
Neighbor list info ...
  1 neighbor list requests
  update every 1 steps, delay 0 steps, check yes
  master list distance cutoff = 6.50679
Setting up minimization ...
Memory usage per processor = 25.009 Mbytes
Step TotEng PotEng KinEng Temp Press sxx syy szz sxy sxz syz 
       0      -129887.119578710845      -129887.119578710845                         0                         0      -107.506585041238566    -0.0899014733484351652    -0.0937086451529795667       1.08933652347859633    0.00436404361414211798   -0.00355626913474351184   -0.00270684755035780584 
     100      -129887.156432379066      -129887.182607517956     0.0261751388883795164    0.00537662126964334828      -107.418801641882553     -0.089771267645822897    -0.0943446816468463539       1.08910279266361076    0.00507558475860007789   -0.00316574633889017991   -0.00361421689641862505 
     200      -129887.184423274783      -129887.194704992988     0.0102817182071277616    0.00211196223396027194      -107.501273412302425    -0.0893867258397639253    -0.0942908550451326405       1.08935923620716357    0.00467380639255455047   -0.00235521591433617179    -0.0037766419808144833 
     212      -129887.181632783511      -129887.194297213195     0.0126644296809017756    0.00260139372251692088      -107.519657468987177    -0.0893420371122883028    -0.0942303226572685504       1.08940889793519169    0.00455867713474616531   -0.00226743827055142858   -0.00375210536399609362 
Loop time of 21.3304 on 1 procs for 212 steps with 37664 atoms

Minimization stats:
  Stopping criterion = force tolerance
  Energy initial, next-to-last, final = 
        -129887.119579     -129887.194342     -129887.194297
  Force two-norm initial, final = 0.186821 0.0234913
  Force max component initial, final = 0.0261247 0.00108909
  Final line search alpha, max atom move = 0 0
  Iterations, force evaluations = 212 212

Pair  time (%) = 20.0888 (94.1793)
Neigh time (%) = 0.071645 (0.335883)
Comm  time (%) = 0.000831366 (0.00389757)
Outpt time (%) = 0.00451517 (0.0211678)
Other time (%) = 1.16458 (5.45975)

Nlocal:    37664 ave 37664 max 37664 min
Histogram: 1 0 0 0 0 0 0 0 0 0
Nghost:    0 ave 0 max 0 min
Histogram: 1 0 0 0 0 0 0 0 0 0
Neighs:    1.52305e+06 ave 1.52305e+06 max 1.52305e+06 min
Histogram: 1 0 0 0 0 0 0 0 0 0

Total # of neighbors = 1523054
Ave neighs/atom = 40.4379
Neighbor list builds = 1
Dangerous builds = 0
WARNING: Resetting reneighboring criteria during minimization (../min.cpp:168)
Setting up minimization ...
Memory usage per processor = 25.009 Mbytes
Step TotEng PotEng KinEng Temp Press sxx syy szz sxy sxz syz 
     212      -129887.194297213195      -129887.194297213195                         0                         0       -107.52074032988817    -0.0893401392431969338    -0.0942264681104778429       1.08941226845545747    0.00455884863181803875   -0.00226879358421745031   -0.00375158872317340542 
Loop time of 3.8147e-06 on 1 procs for 0 steps with 37664 atoms

Minimization stats:
  Stopping criterion = force tolerance
  Energy initial, next-to-last, final = 
        -129887.194297     -129887.194342     -129887.194297
  Force two-norm initial, final = 0.0234913 0.0234913
  Force max component initial, final = 0.00108909 0.00108909
  Final line search alpha, max atom move = 0 0
  Iterations, force evaluations = 0 0

Pair  time (%) = 0 (0)
Neigh time (%) = 0 (0)
Comm  time (%) = 0 (0)
Outpt time (%) = 0 (0)
Other time (%) = 3.8147e-06 (100)

Nlocal:    37664 ave 37664 max 37664 min
Histogram: 1 0 0 0 0 0 0 0 0 0
Nghost:    0 ave 0 max 0 min
Histogram: 1 0 0 0 0 0 0 0 0 0
Neighs:    1.52305e+06 ave 1.52305e+06 max 1.52305e+06 min
Histogram: 1 0 0 0 0 0 0 0 0 0

Total # of neighbors = 1523054
Ave neighs/atom = 40.4379
Neighbor list builds = 0
Dangerous builds = 0
