LAMMPS (15 May 2015)
Processor partition = 1
------- This is Cu ---------
Reading restart file ...
  restart file = 15 May 2015, LAMMPS = 15 May 2015
  orthogonal box = (-100 -100 -156.15) to (100 100 156.15)
  1 by 1 by 1 MPI processor grid
  37664 atoms
WARNING: Resetting reneighboring criteria during minimization (../min.cpp:168)
Neighbor list info ...
  1 neighbor list requests
  update every 1 steps, delay 0 steps, check yes
  master list distance cutoff = 6.50679
Setting up minimization ...
Memory usage per processor = 25.009 Mbytes
Step TotEng PotEng KinEng Temp Press sxx syy szz sxy sxz syz 
       0      -129887.255233745251      -129887.255233745251                         0                         0      -107.835548410939026    -0.0902359769301567527    -0.0915274197996286676       1.09026126738131146    0.00153277137768024888   -0.00129625755596482115   -0.00105836694705787617 
     100      -129887.260409186405      -129887.269749402651    0.00934021624334671619    0.00191856881948928031      -107.785500813832087    -0.0902330438846943028    -0.0918338310237932914       1.09014310227009714    0.00178975748729390065   -0.00102115250472618489   -0.00133224154081791916 
     200      -129887.270363801421      -129887.272516847632    0.00215304621340032306   0.000442256070344386107      -107.819441356775116    -0.0900221329909069584    -0.0919019665302479999       1.09028627072451934    0.00175453285282370906  -0.000639344811415046071   -0.00150754552580525882 
     212      -129887.270304221383      -129887.272726818715     0.0024225973318797527   0.000497624421322499246      -107.828672876693943    -0.0899881223741977876    -0.0918885004929539534       1.09031656820263256    0.00172687677994494328  -0.000598467829743662221    -0.0015219678643504811 
Loop time of 21.3304 on 1 procs for 212 steps with 37664 atoms

Minimization stats:
  Stopping criterion = force tolerance
  Energy initial, next-to-last, final = 
        -129887.255234     -129887.272709     -129887.272727
  Force two-norm initial, final = 0.108723 0.010239
  Force max component initial, final = 0.0184906 0.000384628
  Final line search alpha, max atom move = 0 0
  Iterations, force evaluations = 212 212

Pair  time (%) = 18.5942 (87.1725)
Neigh time (%) = 0.0671561 (0.314838)
Comm  time (%) = 0.000822544 (0.00385621)
Outpt time (%) = 0.0036931 (0.0173138)
Other time (%) = 2.66448 (12.4915)

Nlocal:    37664 ave 37664 max 37664 min
Histogram: 1 0 0 0 0 0 0 0 0 0
Nghost:    0 ave 0 max 0 min
Histogram: 1 0 0 0 0 0 0 0 0 0
Neighs:    1.523e+06 ave 1.523e+06 max 1.523e+06 min
Histogram: 1 0 0 0 0 0 0 0 0 0

Total # of neighbors = 1523002
Ave neighs/atom = 40.4365
Neighbor list builds = 1
Dangerous builds = 0
WARNING: Resetting reneighboring criteria during minimization (../min.cpp:168)
Setting up minimization ...
Memory usage per processor = 25.009 Mbytes
Step TotEng PotEng KinEng Temp Press sxx syy szz sxy sxz syz 
     212      -129887.272726818715      -129887.272726818715                         0                         0      -107.828880018744186    -0.0899874184316776654    -0.0918882301030867488       1.09031733901009775    0.00172697966738751354  -0.000598741498269230528   -0.00152201961491040677 
Loop time of 3.09944e-06 on 1 procs for 0 steps with 37664 atoms

Minimization stats:
  Stopping criterion = force tolerance
  Energy initial, next-to-last, final = 
        -129887.272727     -129887.272709     -129887.272727
  Force two-norm initial, final = 0.010239 0.010239
  Force max component initial, final = 0.000384628 0.000384628
  Final line search alpha, max atom move = 0 0
  Iterations, force evaluations = 0 0

Pair  time (%) = 0 (0)
Neigh time (%) = 0 (0)
Comm  time (%) = 0 (0)
Outpt time (%) = 0 (0)
Other time (%) = 3.09944e-06 (100)

Nlocal:    37664 ave 37664 max 37664 min
Histogram: 1 0 0 0 0 0 0 0 0 0
Nghost:    0 ave 0 max 0 min
Histogram: 1 0 0 0 0 0 0 0 0 0
Neighs:    1.523e+06 ave 1.523e+06 max 1.523e+06 min
Histogram: 1 0 0 0 0 0 0 0 0 0

Total # of neighbors = 1523002
Ave neighs/atom = 40.4365
Neighbor list builds = 0
Dangerous builds = 0
