LAMMPS (15 May 2015)
Processor partition = 6
------- This is Cu ---------
Reading restart file ...
  restart file = 15 May 2015, LAMMPS = 15 May 2015
  orthogonal box = (-100 -100 -156.15) to (100 100 156.15)
  1 by 1 by 1 MPI processor grid
  37664 atoms
WARNING: Resetting reneighboring criteria during minimization (../min.cpp:168)
Neighbor list info ...
  1 neighbor list requests
  update every 1 steps, delay 0 steps, check yes
  master list distance cutoff = 6.50679
Setting up minimization ...
Memory usage per processor = 25.009 Mbytes
Step TotEng PotEng KinEng Temp Press sxx syy szz sxy sxz syz 
       0      -129886.854276625323      -129886.854276625323                         0                         0      -107.403548844046426    -0.0900893734991424638    -0.0939201956069269234       1.08886791000670802    0.00351217802322900544   -0.00361646781018753029   0.000794547841898867184 
     100      -129886.867353751761      -129886.948479842002     0.0811260902341744833     0.0166640667748170976       -107.53126476235235    -0.0896643254620760194    -0.0931246233425877257       1.08872327662743018    0.00368647885519021853   -0.00194417525672686549    0.00097401450343335581 
     200      -129886.965733576071       -129886.98425127448     0.0185176984128443411    0.00380371051996750663      -107.622119464701484    -0.0893327744793775969    -0.0926509756489368452       1.08868351481154146    0.00270874879605962661  -0.000711289825709202008     0.0013511717797871027 
     212      -129886.966768370738      -129886.986587577485     0.0198192067509674087    0.00407105265111001955      -107.638003852842814     -0.089293012600469221    -0.0925740427496095225       1.08870064355454499    0.00256534405963895285  -0.000601123074688248815    0.00140854475913387259 
Loop time of 21.3304 on 1 procs for 212 steps with 37664 atoms

Minimization stats:
  Stopping criterion = force tolerance
  Energy initial, next-to-last, final = 
        -129886.854277     -129886.986396     -129886.986588
  Force two-norm initial, final = 0.482103 0.0292232
  Force max component initial, final = 0.0611007 0.00147974
  Final line search alpha, max atom move = 0 0
  Iterations, force evaluations = 212 212

Pair  time (%) = 18.6881 (87.6124)
Neigh time (%) = 0.0668252 (0.313286)
Comm  time (%) = 0.000776052 (0.00363825)
Outpt time (%) = 0.0033772 (0.0158328)
Other time (%) = 2.57134 (12.0548)

Nlocal:    37664 ave 37664 max 37664 min
Histogram: 1 0 0 0 0 0 0 0 0 0
Nghost:    0 ave 0 max 0 min
Histogram: 1 0 0 0 0 0 0 0 0 0
Neighs:    1.52299e+06 ave 1.52299e+06 max 1.52299e+06 min
Histogram: 1 0 0 0 0 0 0 0 0 0

Total # of neighbors = 1522989
Ave neighs/atom = 40.4362
Neighbor list builds = 1
Dangerous builds = 0
WARNING: Resetting reneighboring criteria during minimization (../min.cpp:168)
Setting up minimization ...
Memory usage per processor = 25.009 Mbytes
Step TotEng PotEng KinEng Temp Press sxx syy szz sxy sxz syz 
     212      -129886.986587577485      -129886.986587577485                         0                         0      -107.639698476652924    -0.0892899045240109351    -0.0925679680109773861       1.08870573768380696    0.00256584220191478137  -0.000603468271630325237    0.00140955779988278336 
Loop time of 3.09944e-06 on 1 procs for 0 steps with 37664 atoms

Minimization stats:
  Stopping criterion = force tolerance
  Energy initial, next-to-last, final = 
        -129886.986588     -129886.986396     -129886.986588
  Force two-norm initial, final = 0.0292232 0.0292232
  Force max component initial, final = 0.00147974 0.00147974
  Final line search alpha, max atom move = 0 0
  Iterations, force evaluations = 0 0

Pair  time (%) = 0 (0)
Neigh time (%) = 0 (0)
Comm  time (%) = 0 (0)
Outpt time (%) = 0 (0)
Other time (%) = 3.09944e-06 (100)

Nlocal:    37664 ave 37664 max 37664 min
Histogram: 1 0 0 0 0 0 0 0 0 0
Nghost:    0 ave 0 max 0 min
Histogram: 1 0 0 0 0 0 0 0 0 0
Neighs:    1.52299e+06 ave 1.52299e+06 max 1.52299e+06 min
Histogram: 1 0 0 0 0 0 0 0 0 0

Total # of neighbors = 1522989
Ave neighs/atom = 40.4362
Neighbor list builds = 0
Dangerous builds = 0
