LAMMPS (15 May 2015)
Processor partition = 5
#log         log.neb.lammps
#--------------------------------------------------------------------------------------------------------------------------
# create FCC structure   - copper
# box axis ox: [ 0 -1  1]
# box axis oy: [ 1  1  1]
# box axis oz: [-2  1  1]
#       |y1 [-1 -1  1]
#       |
#       |
#       |____________ x1 [ 1  1  2]
#      /o
#     /
#    /
#   /z1 [ 1 -1 0]

variable    lattice_type index fcc
variable    lattice_atom equal 4
#variable    lattice_cons equal 3.615
if   "${metal} == Al99" then "variable  lattice_cons equal 4.05 " elif "${metal} == Al03"      "variable  lattice_cons equal 4.05 " elif "${metal} == Ni"        "variable  lattice_cons equal 3.52 " elif "${metal} == Cu"        "variable  lattice_cons equal 3.615" elif "${metal} == Ag"        "variable  lattice_cons equal 4.09 " elif "${metal} == Au"        "variable  lattice_cons equal 4.08 " else "print '------- This is nothing ----'"   "quit"
variable  lattice_cons equal 3.615
print '------- This is ${metal} ---------'
------- This is Cu ---------

variable    cell_volume  equal ${lattice_cons}^3
variable    cell_volume  equal 3.615^3
variable    atom_volume  equal ${cell_volume}/${lattice_atom}*10000 # 10000 是为了使得最终的应力结果以GPa为单位而引入的参数
variable    atom_volume  equal 47.241633375/${lattice_atom}*10000 
variable    atom_volume  equal 47.241633375/4*10000 
                                                                    # metal units 中, 应力单位为bar

variable        timestep    equal 0.002
variable        u  uloop 480

atom_modify     map array sort 0 0.0    # build mapping and turn off sorting

variable        nStep   index 5064
read_restart    ./res/neb.${nStep}.$u.restart
read_restart    ./res/neb.410.$u.restart
read_restart    ./res/neb.410.6.restart
  orthogonal box = (-100 -100 -156.15) to (100 100 156.15)
  1 by 1 by 1 MPI processor grid
  37664 atoms
reset_timestep  0
# -------- potentials & neighbor -------
pair_style      eam/alloy
#pair_coeff      * * Cu_mishin1.eam.alloy Cu
if   "${metal} == Al99" then "pair_coeff  * * ../potentials/Al99.eam.alloy Al" elif "${metal} == Al03"      "pair_coeff  * * ../potentials/Al03.eam.alloy Al" elif "${metal} == Ni"        "pair_coeff  * * ../potentials/Ni99.eam.alloy Ni" elif "${metal} == Cu"        "pair_coeff  * * ../potentials/Cu_mishin1.eam.alloy Cu" elif "${metal} == Ag"        "pair_coeff  * * ../potentials/Ag.eam.alloy Ag" elif "${metal} == Au"        "pair_coeff  * * ../potentials/Au-Grochola-JCP05.eam.alloy Au" else "quit"
pair_coeff  * * ../potentials/Cu_mishin1.eam.alloy Cu

neighbor        1.0 bin
neigh_modify    every 1 delay 5 check yes
# --------------------------------------

# ----------------------- 定义统计量 ---------------------------------
compute         atomStress all stress/atom NULL
compute         atomPE all pe/atom
#---------- 每个原子的应力 -------------
variable        peratom_sxx atom c_atomStress[1]/${atom_volume}
variable        peratom_sxx atom c_atomStress[1]/118104.0834375
variable        peratom_syy atom c_atomStress[2]/${atom_volume}
variable        peratom_syy atom c_atomStress[2]/118104.0834375
variable        peratom_szz atom c_atomStress[3]/${atom_volume}
variable        peratom_szz atom c_atomStress[3]/118104.0834375
variable        peratom_sxy atom c_atomStress[4]/${atom_volume}
variable        peratom_sxy atom c_atomStress[4]/118104.0834375
variable        peratom_sxz atom c_atomStress[5]/${atom_volume}
variable        peratom_sxz atom c_atomStress[5]/118104.0834375
variable        peratom_syz atom c_atomStress[6]/${atom_volume}
variable        peratom_syz atom c_atomStress[6]/118104.0834375
#----------- all的体积 --------------
variable        p_natom equal count(all)
variable        entityVol equal ${atom_volume}*${p_natom}
variable        entityVol equal 118104.0834375*${p_natom}
variable        entityVol equal 118104.0834375*37664
#----------- all的应力 --------------
compute         sxx0 all  reduce sum c_atomStress[1]
compute         syy0 all  reduce sum c_atomStress[2]
compute         szz0 all  reduce sum c_atomStress[3]
compute         sxy0 all  reduce sum c_atomStress[4]
compute         sxz0 all  reduce sum c_atomStress[5]
compute         syz0 all  reduce sum c_atomStress[6]
variable        sxx equal c_sxx0/${entityVol}
variable        sxx equal c_sxx0/4448272198.59
variable        syy equal c_syy0/${entityVol}
variable        syy equal c_syy0/4448272198.59
variable        szz equal c_szz0/${entityVol}
variable        szz equal c_szz0/4448272198.59
variable        sxy equal c_sxy0/${entityVol}
variable        sxy equal c_sxy0/4448272198.59
variable        sxz equal c_sxz0/${entityVol}
variable        sxz equal c_sxz0/4448272198.59
variable        syz equal c_syz0/${entityVol}
variable        syz equal c_syz0/4448272198.59
# --------------------------------------------------------------------

thermo          100
thermo_style    custom step etotal pe ke temp press v_sxx v_syy v_szz v_sxy v_sxz v_syz
thermo_modify   format float %25.18g

reset_timestep  0
timestep        ${timestep}
timestep        0.002

dump            1 all custom 5000 neb.*.$u.lammpstrj id x y z v_peratom_sxx v_peratom_syy v_peratom_szz v_peratom_sxy v_peratom_sxz v_peratom_syz c_atomPE
dump            1 all custom 5000 neb.*.6.lammpstrj id x y z v_peratom_sxx v_peratom_syy v_peratom_szz v_peratom_sxy v_peratom_sxz v_peratom_syz c_atomPE
dump_modify     1 sort id
restart         5000 neb.*.$u.restart
restart         5000 neb.*.6.restart

fix             1 boundary setforce 0 0 0
variable        kspring     index 1.0
fix             2 mobile neb ${kspring}
fix             2 mobile neb 1.0

min_style       quickmin
variable        etol    index 0.0
variable        ftol    index 0.01
variable        nudgeStep index 400000
variable        climbStep index 400000
neb             ${etol} ${ftol} ${nudgeStep} ${climbStep} 100 none
neb             0.0 ${ftol} ${nudgeStep} ${climbStep} 100 none
neb             0.0 0.003 ${nudgeStep} ${climbStep} 100 none
neb             0.0 0.003 400000 ${climbStep} 100 none
neb             0.0 0.003 400000 400000 100 none
WARNING: Resetting reneighboring criteria during minimization (../min.cpp:168)
Neighbor list info ...
  1 neighbor list requests
  update every 1 steps, delay 0 steps, check yes
  master list distance cutoff = 6.50679
Memory usage per processor = 25.009 Mbytes
Step TotEng PotEng KinEng Temp Press sxx syy szz sxy sxz syz 
       0      -129886.980340214635      -129886.980340214635                         0                         0       -107.80610854535405    -0.0892414979072069792    -0.0919901153724789061       1.08948182090225276    0.00144750076337999138  -0.000470119263275039102   0.000651915452742089243 
     100      -129886.980337137371      -129886.980631766302   0.000294628925709952661   6.05195699392284086e-05       -107.81150499078943     -0.089269935643233489     -0.091925128813803339       1.08949073631863524    0.00136531432177915222  -0.000432696392749453665   0.000708849875871984426 
     200      -129886.980333249201       -129886.98138305539    0.00104980618359554927   0.000215640126296666283      -107.823403182780623    -0.0893759342450147487    -0.0917400972246368573       1.08951194380455263    0.00112871702488280762  -0.000331200251213845651    0.00088451534219256508 
     300      -129886.981381897349      -129886.981937427379   0.000555530030814746956    0.00011411112629970494       -107.83088132940712    -0.0894912770362608634     -0.091574173791325153       1.08952436542014741   0.000932292636399392532  -0.000243251466371762463    0.00105262787297246189 
     400      -129886.982062192503      -129886.982347721947   0.000285529441606706305   5.86504497797928469e-05      -107.835582925792821      -0.08960598056039909    -0.0914269478797472696       1.08953145327324696    0.00077151774519029011   -0.00016737606126107849    0.00120891157295571045 
     500      -129886.982515623749      -129886.982662747861   0.000147124118734842348   3.02206864857731769e-05      -107.838827999683403    -0.0897168612959423489    -0.0912933681964519794       1.08953609358369263    0.00063707431043973149  -0.000100552432184024471    0.00135563808485965158 
     600      -129886.982829750923      -129886.982905294819   7.55438994843247292e-05   1.55174319605822434e-05      -107.841295034413221    -0.0898191475092626618    -0.0911739869816828585       1.08953978297781018    0.00052612444327954143  -4.25876838712877347e-05     0.0014904720271662036 
     700      -129886.982829163666      -129886.983077054552   0.000247890893275350837   5.09191357118966612e-05      -107.843168371301871    -0.0899018554405935921    -0.0910786253731060286       1.08954291188134778    0.00044356872854795198   2.56272400187993231e-06    0.00160085944265945775 
     800      -129886.983061498468       -129886.98321084393   0.000149345467422218716   3.06769725307402344e-05      -107.844852335311529    -0.0899722768689793367    -0.0909972229713531117       1.08954611805084878   0.000377351105195148598   4.02830883817996955e-05    0.00169719454207647416 
     900      -129886.983234715182      -129886.983324129804   8.94146240839475601e-05   1.83666100767222948e-05      -107.846511404250208     -0.090035674933153953    -0.0909233463465855818       1.08954961689585472   0.000320517786575163816   7.39798292004070047e-05    0.00178671225843902168 
     934      -129886.983234608837      -129886.983361492268   0.000126883424222990556   2.60630562592879431e-05      -107.847117404019073     -0.090057212367420883    -0.0908980589092222291       1.08955097234944165   0.000301757343922143522   8.54219414784835197e-05    0.00181790745070506106 
Loop time of 91.5167 on 1 procs for 934 steps with 37664 atoms

Minimization stats:
  Stopping criterion = force tolerance
  Energy initial, next-to-last, final = 
         -129886.98034      -129886.98336     -129886.983361
  Force two-norm initial, final = 0.0102035 0.00299776
  Force max component initial, final = 0.000409231 4.53948e-05
  Final line search alpha, max atom move = 0 0
  Iterations, force evaluations = 934 934

Pair  time (%) = 87.6925 (95.8212)
Neigh time (%) = 0.0714161 (0.0780361)
Comm  time (%) = 0.00238061 (0.00260128)
Outpt time (%) = 0.0182469 (0.0199383)
Other time (%) = 3.73221 (4.07818)

Nlocal:    37664 ave 37664 max 37664 min
Histogram: 1 0 0 0 0 0 0 0 0 0
Nghost:    0 ave 0 max 0 min
Histogram: 1 0 0 0 0 0 0 0 0 0
Neighs:    1.52299e+06 ave 1.52299e+06 max 1.52299e+06 min
Histogram: 1 0 0 0 0 0 0 0 0 0

Total # of neighbors = 1522986
Ave neighs/atom = 40.4361
Neighbor list builds = 1
Dangerous builds = 0
WARNING: Resetting reneighboring criteria during minimization (../min.cpp:168)
Memory usage per processor = 25.009 Mbytes
Step TotEng PotEng KinEng Temp Press sxx syy szz sxy sxz syz 
     934      -129886.983361492268      -129886.983361492268                         0                         0      -107.847128253070096    -0.0900571713554978864    -0.0908980329313330143       1.08955099676124356   0.000301765759919593135   8.54147729435944568e-05    0.00181791551901589236 
    1000      -129886.983357289166      -129886.983370951944   1.36627797886813099e-05   2.80646428382046351e-06      -107.847289142000108     -0.090063907011480912    -0.0908914791622435214       1.08955253411313002   0.000297546797465029545   8.71744639179729551e-05    0.00182375557811904031 
    1061      -129886.983351576186      -129886.983398115481   4.65392971515261257e-05   9.55961211920196436e-06       -107.84775286631907    -0.0900819015708986121     -0.090873184330209078       1.08955614064795281   0.000285600173427205813   9.28311543588839573e-05    0.00184163240397589565 
Loop time of 12.768 on 1 procs for 127 steps with 37664 atoms

Minimization stats:
  Stopping criterion = force tolerance
  Energy initial, next-to-last, final = 
        -129886.983361     -129886.983398     -129886.983398
  Force two-norm initial, final = 0.00329389 0.00299837
  Force max component initial, final = 0.000231426 0.000153519
  Final line search alpha, max atom move = 0 0
  Iterations, force evaluations = 127 127

Pair  time (%) = 12.0392 (94.2919)
Neigh time (%) = 0.071429 (0.559437)
Comm  time (%) = 0.000648499 (0.00507909)
Outpt time (%) = 0.00206184 (0.0161485)
Other time (%) = 0.654676 (5.12747)

Nlocal:    37664 ave 37664 max 37664 min
Histogram: 1 0 0 0 0 0 0 0 0 0
Nghost:    0 ave 0 max 0 min
Histogram: 1 0 0 0 0 0 0 0 0 0
Neighs:    1.52298e+06 ave 1.52298e+06 max 1.52298e+06 min
Histogram: 1 0 0 0 0 0 0 0 0 0

Total # of neighbors = 1522985
Ave neighs/atom = 40.4361
Neighbor list builds = 1
Dangerous builds = 0

