LAMMPS (15 May 2015)
Processor partition = 2
#log         log.neb.lammps
#--------------------------------------------------------------------------------------------------------------------------
# create FCC structure   - copper
# box axis ox: [ 0 -1  1]
# box axis oy: [ 1  1  1]
# box axis oz: [-2  1  1]
#       |y1 [-1 -1  1]
#       |
#       |
#       |____________ x1 [ 1  1  2]
#      /o
#     /
#    /
#   /z1 [ 1 -1 0]

variable    lattice_type index fcc
variable    lattice_atom equal 4
#variable    lattice_cons equal 3.615
if   "${metal} == Al99" then "variable  lattice_cons equal 4.05 " elif "${metal} == Al03"      "variable  lattice_cons equal 4.05 " elif "${metal} == Ni"        "variable  lattice_cons equal 3.52 " elif "${metal} == Cu"        "variable  lattice_cons equal 3.615" elif "${metal} == Ag"        "variable  lattice_cons equal 4.09 " elif "${metal} == Au"        "variable  lattice_cons equal 4.08 " else "print '------- This is nothing ----'"   "quit"
variable  lattice_cons equal 3.615
print '------- This is ${metal} ---------'
------- This is Cu ---------

variable    cell_volume  equal ${lattice_cons}^3
variable    cell_volume  equal 3.615^3
variable    atom_volume  equal ${cell_volume}/${lattice_atom}*10000 # 10000 是为了使得最终的应力结果以GPa为单位而引入的参数
variable    atom_volume  equal 47.241633375/${lattice_atom}*10000 
variable    atom_volume  equal 47.241633375/4*10000 
                                                                    # metal units 中, 应力单位为bar

variable        timestep    equal 0.002
variable        u  uloop 480

atom_modify     map array sort 0 0.0    # build mapping and turn off sorting

variable        nStep   index 5064
read_restart    ./res/neb.${nStep}.$u.restart
read_restart    ./res/neb.410.$u.restart
read_restart    ./res/neb.410.3.restart
  orthogonal box = (-100 -100 -156.15) to (100 100 156.15)
  1 by 1 by 1 MPI processor grid
  37664 atoms
reset_timestep  0
# -------- potentials & neighbor -------
pair_style      eam/alloy
#pair_coeff      * * Cu_mishin1.eam.alloy Cu
if   "${metal} == Al99" then "pair_coeff  * * ../potentials/Al99.eam.alloy Al" elif "${metal} == Al03"      "pair_coeff  * * ../potentials/Al03.eam.alloy Al" elif "${metal} == Ni"        "pair_coeff  * * ../potentials/Ni99.eam.alloy Ni" elif "${metal} == Cu"        "pair_coeff  * * ../potentials/Cu_mishin1.eam.alloy Cu" elif "${metal} == Ag"        "pair_coeff  * * ../potentials/Ag.eam.alloy Ag" elif "${metal} == Au"        "pair_coeff  * * ../potentials/Au-Grochola-JCP05.eam.alloy Au" else "quit"
pair_coeff  * * ../potentials/Cu_mishin1.eam.alloy Cu

neighbor        1.0 bin
neigh_modify    every 1 delay 5 check yes
# --------------------------------------

# ----------------------- 定义统计量 ---------------------------------
compute         atomStress all stress/atom NULL
compute         atomPE all pe/atom
#---------- 每个原子的应力 -------------
variable        peratom_sxx atom c_atomStress[1]/${atom_volume}
variable        peratom_sxx atom c_atomStress[1]/118104.0834375
variable        peratom_syy atom c_atomStress[2]/${atom_volume}
variable        peratom_syy atom c_atomStress[2]/118104.0834375
variable        peratom_szz atom c_atomStress[3]/${atom_volume}
variable        peratom_szz atom c_atomStress[3]/118104.0834375
variable        peratom_sxy atom c_atomStress[4]/${atom_volume}
variable        peratom_sxy atom c_atomStress[4]/118104.0834375
variable        peratom_sxz atom c_atomStress[5]/${atom_volume}
variable        peratom_sxz atom c_atomStress[5]/118104.0834375
variable        peratom_syz atom c_atomStress[6]/${atom_volume}
variable        peratom_syz atom c_atomStress[6]/118104.0834375
#----------- all的体积 --------------
variable        p_natom equal count(all)
variable        entityVol equal ${atom_volume}*${p_natom}
variable        entityVol equal 118104.0834375*${p_natom}
variable        entityVol equal 118104.0834375*37664
#----------- all的应力 --------------
compute         sxx0 all  reduce sum c_atomStress[1]
compute         syy0 all  reduce sum c_atomStress[2]
compute         szz0 all  reduce sum c_atomStress[3]
compute         sxy0 all  reduce sum c_atomStress[4]
compute         sxz0 all  reduce sum c_atomStress[5]
compute         syz0 all  reduce sum c_atomStress[6]
variable        sxx equal c_sxx0/${entityVol}
variable        sxx equal c_sxx0/4448272198.59
variable        syy equal c_syy0/${entityVol}
variable        syy equal c_syy0/4448272198.59
variable        szz equal c_szz0/${entityVol}
variable        szz equal c_szz0/4448272198.59
variable        sxy equal c_sxy0/${entityVol}
variable        sxy equal c_sxy0/4448272198.59
variable        sxz equal c_sxz0/${entityVol}
variable        sxz equal c_sxz0/4448272198.59
variable        syz equal c_syz0/${entityVol}
variable        syz equal c_syz0/4448272198.59
# --------------------------------------------------------------------

thermo          100
thermo_style    custom step etotal pe ke temp press v_sxx v_syy v_szz v_sxy v_sxz v_syz
thermo_modify   format float %25.18g

reset_timestep  0
timestep        ${timestep}
timestep        0.002

dump            1 all custom 5000 neb.*.$u.lammpstrj id x y z v_peratom_sxx v_peratom_syy v_peratom_szz v_peratom_sxy v_peratom_sxz v_peratom_syz c_atomPE
dump            1 all custom 5000 neb.*.3.lammpstrj id x y z v_peratom_sxx v_peratom_syy v_peratom_szz v_peratom_sxy v_peratom_sxz v_peratom_syz c_atomPE
dump_modify     1 sort id
restart         5000 neb.*.$u.restart
restart         5000 neb.*.3.restart

fix             1 boundary setforce 0 0 0
variable        kspring     index 1.0
fix             2 mobile neb ${kspring}
fix             2 mobile neb 1.0

min_style       quickmin
variable        etol    index 0.0
variable        ftol    index 0.01
variable        nudgeStep index 400000
variable        climbStep index 400000
neb             ${etol} ${ftol} ${nudgeStep} ${climbStep} 100 none
neb             0.0 ${ftol} ${nudgeStep} ${climbStep} 100 none
neb             0.0 0.003 ${nudgeStep} ${climbStep} 100 none
neb             0.0 0.003 400000 ${climbStep} 100 none
neb             0.0 0.003 400000 400000 100 none
WARNING: Resetting reneighboring criteria during minimization (../min.cpp:168)
Neighbor list info ...
  1 neighbor list requests
  update every 1 steps, delay 0 steps, check yes
  master list distance cutoff = 6.50679
Memory usage per processor = 25.009 Mbytes
Step TotEng PotEng KinEng Temp Press sxx syy szz sxy sxz syz 
       0      -129886.981534834325      -129886.981534834325                         0                         0      -107.801761382911749    -0.0892413244159633717    -0.0921283914406381826       1.08958329929111963     0.0016047823780422194  -0.000649258997295635285   0.000256191469207445914 
     100       -129886.98153308811      -129886.981829086464   0.000295998352979842086   6.08008632617935721e-05      -107.807314843969607    -0.0892693515857432007    -0.0920623582776152888       1.08959208036984978    0.00152333033125123482  -0.000610091666763479821   0.000313211769878619711 
     200      -129886.981531554498      -129886.982580794531    0.00104924003593023004   0.000215523834207745785      -107.819336943342336    -0.0893752265537564733    -0.0918769729443392191       1.08961385437891956    0.00128654917038308406  -0.000508161294489732217   0.000488765860740455853 
     300      -129886.982579890406      -129886.983135186136   0.000555295728564369562   0.000114062998399857803      -107.826847401171918    -0.0894906245462480932    -0.0917110162169362114       1.08962657011865693    0.00109024307955442041    -0.0004203061465731609   0.000656613452826160151 
     400      -129886.983260017281      -129886.983545502546   0.000285485267140254777    5.8641375926282023e-05       -107.83157287804066    -0.0896053509132962861    -0.0915637557720652973       1.08963384747087333   0.000929538184356090225  -0.000344441285150676364    0.00081269473671542595 
     500      -129886.983713453155      -129886.983860564549   0.000147111392986305696   3.02180724965773188e-05      -107.834842216862583    -0.0897162272364972063    -0.0914301244007851982       1.08963863610934952   0.000795124042450793449  -0.000277617376760563742   0.000959271415713290219 
     600      -129886.984027570201      -129886.984103105584   7.55353899874377843e-05   1.55156840293811377e-05      -107.837329523104543    -0.0898185023768921509    -0.0913106930206353529         1.089642435049613   0.000684186046554584987  -0.000219654816743277131    0.00109399536980099251 
     700      -129886.984027042519      -129886.984274892224   0.000247849703948049989   5.09106750342210851e-05      -107.839217073255099    -0.0899011996363374838    -0.0912152943824991874       1.08964563599628383   0.000601636065280237824  -0.000174510412022124001    0.00120430478447538939 
     800      -129886.984259375706      -129886.984408686942   0.000149311236170845122   3.06699411077167815e-05      -107.840911639787379    -0.0899716108955745802    -0.0911338626731035134       1.08964889201363246   0.000535420403917806205  -0.000136796827593670632     0.0013005828622868205 
     900      -129886.984432569327      -129886.984521957143   8.93878148351234911e-05   1.83611032032701477e-05      -107.842579084546372    -0.0900349985761588201    -0.0910599613539633534       1.08965242634573589   0.000478586242103027108   -0.00010310720201137059    0.00139005753783785768 
     934      -129886.984432465746       -129886.98455930769   0.000126841942517128892   2.60545355242886763e-05      -107.843187688260471    -0.0900565321246796363    -0.0910346653973331532        1.0896537913321358   0.000459824280853374473  -9.16670796367807735e-05    0.00142124156013037932 
Loop time of 91.5168 on 1 procs for 934 steps with 37664 atoms

Minimization stats:
  Stopping criterion = force tolerance
  Energy initial, next-to-last, final = 
        -129886.981535     -129886.984558     -129886.984559
  Force two-norm initial, final = 0.0104993 0.00299726
  Force max component initial, final = 0.000577992 4.53906e-05
  Final line search alpha, max atom move = 0 0
  Iterations, force evaluations = 934 934

Pair  time (%) = 87.7908 (95.9287)
Neigh time (%) = 0.071558 (0.0781911)
Comm  time (%) = 0.00240588 (0.0026289)
Outpt time (%) = 0.0182483 (0.0199399)
Other time (%) = 3.63374 (3.97057)

Nlocal:    37664 ave 37664 max 37664 min
Histogram: 1 0 0 0 0 0 0 0 0 0
Nghost:    0 ave 0 max 0 min
Histogram: 1 0 0 0 0 0 0 0 0 0
Neighs:    1.52299e+06 ave 1.52299e+06 max 1.52299e+06 min
Histogram: 1 0 0 0 0 0 0 0 0 0

Total # of neighbors = 1522986
Ave neighs/atom = 40.4361
Neighbor list builds = 1
Dangerous builds = 0
WARNING: Resetting reneighboring criteria during minimization (../min.cpp:168)
Memory usage per processor = 25.009 Mbytes
Step TotEng PotEng KinEng Temp Press sxx syy szz sxy sxz syz 
     934       -129886.98455930769       -129886.98455930769                         0                         0      -107.843198533764649    -0.0900564911230566784    -0.0910346394319213881       1.08965381573684184   0.000459832695876341601  -9.16742407544750618e-05    0.00142124962632542173 
    1000      -129886.984559839417      -129886.984571583307   1.17438927097490787e-05   2.41230671596086621e-06      -107.843394124544673    -0.0900632274045378434    -0.0910267282656189863       1.08965428867484992   0.000454055146312077283  -8.81327046750338355e-05    0.00143101090804934137 
    1061      -129886.984573416674      -129886.984616880451   4.34637781100585301e-05   8.92787139896880696e-06      -107.843911648501802    -0.0900812191442985494    -0.0910061508297089067       1.08965606303999984   0.000439480713984730185  -7.94595297770195889e-05    0.00145548495481775085 
Loop time of 12.768 on 1 procs for 127 steps with 37664 atoms

Minimization stats:
  Stopping criterion = force tolerance
  Energy initial, next-to-last, final = 
        -129886.984559     -129886.984616     -129886.984617
  Force two-norm initial, final = 0.00299726 0.00289939
  Force max component initial, final = 4.53906e-05 8.118e-05
  Final line search alpha, max atom move = 0 0
  Iterations, force evaluations = 127 127

Pair  time (%) = 12.0509 (94.3839)
Neigh time (%) = 0.071523 (0.560173)
Comm  time (%) = 0.000661135 (0.00517806)
Outpt time (%) = 0.00206399 (0.0161653)
Other time (%) = 0.642814 (5.03457)

Nlocal:    37664 ave 37664 max 37664 min
Histogram: 1 0 0 0 0 0 0 0 0 0
Nghost:    0 ave 0 max 0 min
Histogram: 1 0 0 0 0 0 0 0 0 0
Neighs:    1.52299e+06 ave 1.52299e+06 max 1.52299e+06 min
Histogram: 1 0 0 0 0 0 0 0 0 0

Total # of neighbors = 1522986
Ave neighs/atom = 40.4361
Neighbor list builds = 1
Dangerous builds = 0

