LAMMPS (15 May 2015)
Processor partition = 3
#log         log.neb.lammps
#--------------------------------------------------------------------------------------------------------------------------
# create FCC structure   - copper
# box axis ox: [ 0 -1  1]
# box axis oy: [ 1  1  1]
# box axis oz: [-2  1  1]
#       |y1 [-1 -1  1]
#       |
#       |
#       |____________ x1 [ 1  1  2]
#      /o
#     /
#    /
#   /z1 [ 1 -1 0]

variable    lattice_type index fcc
variable    lattice_atom equal 4
#variable    lattice_cons equal 3.615
if   "${metal} == Al99" then "variable  lattice_cons equal 4.05 " elif "${metal} == Al03"      "variable  lattice_cons equal 4.05 " elif "${metal} == Ni"        "variable  lattice_cons equal 3.52 " elif "${metal} == Cu"        "variable  lattice_cons equal 3.615" elif "${metal} == Ag"        "variable  lattice_cons equal 4.09 " elif "${metal} == Au"        "variable  lattice_cons equal 4.08 " else "print '------- This is nothing ----'"   "quit"
variable  lattice_cons equal 3.615
print '------- This is ${metal} ---------'
------- This is Cu ---------

variable    cell_volume  equal ${lattice_cons}^3
variable    cell_volume  equal 3.615^3
variable    atom_volume  equal ${cell_volume}/${lattice_atom}*10000 # 10000 是为了使得最终的应力结果以GPa为单位而引入的参数
variable    atom_volume  equal 47.241633375/${lattice_atom}*10000 
variable    atom_volume  equal 47.241633375/4*10000 
                                                                    # metal units 中, 应力单位为bar

variable        timestep    equal 0.002
variable        u  uloop 480

atom_modify     map array sort 0 0.0    # build mapping and turn off sorting

variable        nStep   index 5064
read_restart    ./res/neb.${nStep}.$u.restart
read_restart    ./res/neb.410.$u.restart
read_restart    ./res/neb.410.4.restart
  orthogonal box = (-100 -100 -156.15) to (100 100 156.15)
  1 by 1 by 1 MPI processor grid
  37664 atoms
reset_timestep  0
# -------- potentials & neighbor -------
pair_style      eam/alloy
#pair_coeff      * * Cu_mishin1.eam.alloy Cu
if   "${metal} == Al99" then "pair_coeff  * * ../potentials/Al99.eam.alloy Al" elif "${metal} == Al03"      "pair_coeff  * * ../potentials/Al03.eam.alloy Al" elif "${metal} == Ni"        "pair_coeff  * * ../potentials/Ni99.eam.alloy Ni" elif "${metal} == Cu"        "pair_coeff  * * ../potentials/Cu_mishin1.eam.alloy Cu" elif "${metal} == Ag"        "pair_coeff  * * ../potentials/Ag.eam.alloy Ag" elif "${metal} == Au"        "pair_coeff  * * ../potentials/Au-Grochola-JCP05.eam.alloy Au" else "quit"
pair_coeff  * * ../potentials/Cu_mishin1.eam.alloy Cu

neighbor        1.0 bin
neigh_modify    every 1 delay 5 check yes
# --------------------------------------

# ----------------------- 定义统计量 ---------------------------------
compute         atomStress all stress/atom NULL
compute         atomPE all pe/atom
#---------- 每个原子的应力 -------------
variable        peratom_sxx atom c_atomStress[1]/${atom_volume}
variable        peratom_sxx atom c_atomStress[1]/118104.0834375
variable        peratom_syy atom c_atomStress[2]/${atom_volume}
variable        peratom_syy atom c_atomStress[2]/118104.0834375
variable        peratom_szz atom c_atomStress[3]/${atom_volume}
variable        peratom_szz atom c_atomStress[3]/118104.0834375
variable        peratom_sxy atom c_atomStress[4]/${atom_volume}
variable        peratom_sxy atom c_atomStress[4]/118104.0834375
variable        peratom_sxz atom c_atomStress[5]/${atom_volume}
variable        peratom_sxz atom c_atomStress[5]/118104.0834375
variable        peratom_syz atom c_atomStress[6]/${atom_volume}
variable        peratom_syz atom c_atomStress[6]/118104.0834375
#----------- all的体积 --------------
variable        p_natom equal count(all)
variable        entityVol equal ${atom_volume}*${p_natom}
variable        entityVol equal 118104.0834375*${p_natom}
variable        entityVol equal 118104.0834375*37664
#----------- all的应力 --------------
compute         sxx0 all  reduce sum c_atomStress[1]
compute         syy0 all  reduce sum c_atomStress[2]
compute         szz0 all  reduce sum c_atomStress[3]
compute         sxy0 all  reduce sum c_atomStress[4]
compute         sxz0 all  reduce sum c_atomStress[5]
compute         syz0 all  reduce sum c_atomStress[6]
variable        sxx equal c_sxx0/${entityVol}
variable        sxx equal c_sxx0/4448272198.59
variable        syy equal c_syy0/${entityVol}
variable        syy equal c_syy0/4448272198.59
variable        szz equal c_szz0/${entityVol}
variable        szz equal c_szz0/4448272198.59
variable        sxy equal c_sxy0/${entityVol}
variable        sxy equal c_sxy0/4448272198.59
variable        sxz equal c_sxz0/${entityVol}
variable        sxz equal c_sxz0/4448272198.59
variable        syz equal c_syz0/${entityVol}
variable        syz equal c_syz0/4448272198.59
# --------------------------------------------------------------------

thermo          100
thermo_style    custom step etotal pe ke temp press v_sxx v_syy v_szz v_sxy v_sxz v_syz
thermo_modify   format float %25.18g

reset_timestep  0
timestep        ${timestep}
timestep        0.002

dump            1 all custom 5000 neb.*.$u.lammpstrj id x y z v_peratom_sxx v_peratom_syy v_peratom_szz v_peratom_sxy v_peratom_sxz v_peratom_syz c_atomPE
dump            1 all custom 5000 neb.*.4.lammpstrj id x y z v_peratom_sxx v_peratom_syy v_peratom_szz v_peratom_sxy v_peratom_sxz v_peratom_syz c_atomPE
dump_modify     1 sort id
restart         5000 neb.*.$u.restart
restart         5000 neb.*.4.restart

fix             1 boundary setforce 0 0 0
variable        kspring     index 1.0
fix             2 mobile neb ${kspring}
fix             2 mobile neb 1.0

min_style       quickmin
variable        etol    index 0.0
variable        ftol    index 0.01
variable        nudgeStep index 400000
variable        climbStep index 400000
neb             ${etol} ${ftol} ${nudgeStep} ${climbStep} 100 none
neb             0.0 ${ftol} ${nudgeStep} ${climbStep} 100 none
neb             0.0 0.003 ${nudgeStep} ${climbStep} 100 none
neb             0.0 0.003 400000 ${climbStep} 100 none
neb             0.0 0.003 400000 400000 100 none
WARNING: Resetting reneighboring criteria during minimization (../min.cpp:168)
Neighbor list info ...
  1 neighbor list requests
  update every 1 steps, delay 0 steps, check yes
  master list distance cutoff = 6.50679
Memory usage per processor = 25.009 Mbytes
Step TotEng PotEng KinEng Temp Press sxx syy szz sxy sxz syz 
       0      -129886.980815254137      -129886.980815254137                         0                         0       -107.80340028417146    -0.0892411741907398331    -0.0920817557758749072       1.08955032089711579    0.00155271281946353667  -0.000588972809442495884   0.000388065802366149371 
     100      -129886.980812773123      -129886.981107667292   0.000294894166671911813   6.05740529432625599e-05      -107.808836966701477    -0.0892695434970585677    -0.0920166032337329659       1.08955934089176676    0.00147057754785408007  -0.000551068478994942278   0.000444850212209912726 
     200      -129886.980809748435      -129886.981858556683    0.00104880825217657805   0.000215435141738006762      -107.820811293196172    -0.0893755179432879077    -0.0918315022022557215       1.08958109620155175    0.00123400923121666202  -0.000449931769635335103   0.000620248212297040626 
     300      -129886.981857531588      -129886.982412859681   0.000555328091608969549   0.000114069646075527789      -107.828300177290785    -0.0894909320704270206    -0.0916655983498873006        1.0895936991955244    0.00103771447600032522   -0.00036210177748524625   0.000788154493411992257 
     400      -129886.982537644406      -129886.982823141792   0.000285497388965736147   5.86438658639663356e-05      -107.833016373572548     -0.089605655458365685    -0.0915183540191149281       1.08960091149515237    0.00087699240488719511  -0.000286234850287760297    0.00094430030573911005 
     500      -129886.982991059311      -129886.983138174968   0.000147115660009801142   3.02189489835897263e-05      -107.836277752085238     -0.089716533634545223    -0.0913847392393229152       1.08960565151370781   0.000742568644944827886   -0.00021940967556199095    0.00109092729587459501 
     600      -129886.983305176967      -129886.983380715261   7.55382959134108344e-05   1.55162809340799562e-05      -107.838758523943454    -0.0898188124215772987    -0.0912653237955540209         1.089609414985792   0.000631626461326009877  -0.000161445495284352915    0.00122568794709548238 
     700      -129886.983304615584      -129886.983552479229   0.000247863648830367656   5.09135394450344034e-05       -107.84064150626142    -0.0899015131745854595    -0.0911699370001665538       1.08961259278550271   0.000549074468063785628  -0.000116298629591749561    0.00133602312391653782 
     800      -129886.983536931206      -129886.983686253967   0.000149322755535870918   3.06723072943213573e-05       -107.84233267949601    -0.0899719277695870817    -0.0910885144366287702       1.08961583269643714    0.00048285778845129514  -7.85821601638417983e-05    0.00143232073263378301 
     900       -129886.98371013283       -129886.98379952964   8.93968102030808773e-05   1.83629509369877887e-05      -107.843997452230298    -0.0900353188605268334    -0.0910146208020584518       1.08961935561203793    0.00042602356778232098  -4.48896323297602658e-05    0.00152181029611684194 
     934      -129886.983710025699      -129886.983836881554   0.000126855851824763711    2.6057392627725428e-05      -107.844605223194506    -0.0900568536849125217    -0.0909893276155702563       1.08962071762865542   0.000407262124896701086  -3.34488160208317871e-05    0.00155299791307637837 
Loop time of 91.5168 on 1 procs for 934 steps with 37664 atoms

Minimization stats:
  Stopping criterion = force tolerance
  Energy initial, next-to-last, final = 
        -129886.980815     -129886.983836     -129886.983837
  Force two-norm initial, final = 0.0103076 0.00299743
  Force max component initial, final = 0.000476615 4.53919e-05
  Final line search alpha, max atom move = 0 0
  Iterations, force evaluations = 934 934

Pair  time (%) = 87.8398 (95.9822)
Neigh time (%) = 0.0715771 (0.078212)
Comm  time (%) = 0.00242519 (0.00265)
Outpt time (%) = 0.0183043 (0.0200011)
Other time (%) = 3.58462 (3.9169)

Nlocal:    37664 ave 37664 max 37664 min
Histogram: 1 0 0 0 0 0 0 0 0 0
Nghost:    0 ave 0 max 0 min
Histogram: 1 0 0 0 0 0 0 0 0 0
Neighs:    1.52298e+06 ave 1.52298e+06 max 1.52298e+06 min
Histogram: 1 0 0 0 0 0 0 0 0 0

Total # of neighbors = 1522981
Ave neighs/atom = 40.436
Neighbor list builds = 1
Dangerous builds = 0
WARNING: Resetting reneighboring criteria during minimization (../min.cpp:168)
Memory usage per processor = 25.009 Mbytes
Step TotEng PotEng KinEng Temp Press sxx syy szz sxy sxz syz 
     934      -129886.983836881554      -129886.983836881554                         0                         0      -107.844616069888019    -0.0900568126798551444    -0.0909893016460688736       1.08962074203585346   0.000407270540237219647  -3.34559796705323709e-05    0.00155300597999963753 
    1000      -129886.983838352855       -129886.98385019078   1.18379256364814044e-05   2.43162196911279102e-06      -107.844808394674658    -0.0900635485888548193    -0.0909814960261283029       1.08962129263224838   0.000401616662927393737  -3.00489246434475368e-05    0.00156246101358760957 
    1061      -129886.983853554411      -129886.983897834914   4.42804966915238236e-05   9.09563312566469512e-06      -107.845308337812128    -0.0900815390046917353    -0.0909615417047834746       1.08962354067227785   0.000387760663928732698  -2.21822980461375464e-05    0.00158513457343700381 
Loop time of 12.768 on 1 procs for 127 steps with 37664 atoms

Minimization stats:
  Stopping criterion = force tolerance
  Energy initial, next-to-last, final = 
        -129886.983837     -129886.983897     -129886.983898
  Force two-norm initial, final = 0.00299743 0.00292635
  Force max component initial, final = 4.53919e-05 0.000108118
  Final line search alpha, max atom move = 0 0
  Iterations, force evaluations = 127 127

Pair  time (%) = 12.0592 (94.4487)
Neigh time (%) = 0.071584 (0.560651)
Comm  time (%) = 0.000678778 (0.00531624)
Outpt time (%) = 0.0020659 (0.0161803)
Other time (%) = 0.634462 (4.96916)

Nlocal:    37664 ave 37664 max 37664 min
Histogram: 1 0 0 0 0 0 0 0 0 0
Nghost:    0 ave 0 max 0 min
Histogram: 1 0 0 0 0 0 0 0 0 0
Neighs:    1.52298e+06 ave 1.52298e+06 max 1.52298e+06 min
Histogram: 1 0 0 0 0 0 0 0 0 0

Total # of neighbors = 1522981
Ave neighs/atom = 40.436
Neighbor list builds = 1
Dangerous builds = 0

