LAMMPS (15 May 2015)
Running on 9 partitions of processors
Step MaxReplicaForce MaxAtomForce GradV0 GradV1 GradVc EBF EBR RDT RD1 PE1 RD2 PE2 ... RDN PEN
0  1.0499335282013e-02  5.7799243591600e-04  3.0546419437981e-02  2.0062447039699e-02  1.0287291196874e-02  3.6606418871088e-03  1.5634329174645e-03  4.3869694759463e-01  0.0000000000000e+00 -1.2988698400086e+05  1.2499294462668e-01 -1.2988698259381e+05  2.4998588925335e-01 -1.2988698153483e+05  3.7497883388003e-01 -1.2988698081525e+05  4.9997177850671e-01 -1.2988698042315e+05  6.2497883388003e-01 -1.2988698034021e+05  7.4998588925336e-01 -1.2988698056488e+05  8.7499294462668e-01 -1.2988698108949e+05  1.0000000000000e+00 -1.2988698190365e+05 
100  9.4544249184211e-03  1.9763308250712e-04  3.0329079327962e-02  1.9765241264219e-02  9.5268617512284e-03  3.6598223523470e-03  1.5618342731614e-03  4.3908889301274e-01  0.0000000000000e+00 -1.2988698429159e+05  1.2498709368114e-01 -1.2988698288701e+05  2.4999110325563e-01 -1.2988698182909e+05  3.7502419062353e-01 -1.2988698110767e+05  5.0008190157737e-01 -1.2988698071245e+05  6.2508770362796e-01 -1.2988698063177e+05  7.5006762491565e-01 -1.2988698085794e+05  8.7503634379524e-01 -1.2988698138165e+05  1.0000000000000e+00 -1.2988698219360e+05 
200  7.8980775646685e-03  1.5506498142671e-04  2.9828886007138e-02  1.9041566832455e-02  8.0125081315898e-03  3.6617822333938e-03  1.5624626248609e-03  4.4000994344278e-01  0.0000000000000e+00 -1.2988698504484e+05  1.2501979615822e-01 -1.2988698363952e+05  2.5003844148695e-01 -1.2988698258079e+05  3.7505348126896e-01 -1.2988698185856e+05  5.0006045852983e-01 -1.2988698146267e+05  6.2505079334919e-01 -1.2988698138306e+05  7.5003691344877e-01 -1.2988698160986e+05  8.7501936141088e-01 -1.2988698213377e+05  1.0000000000000e+00 -1.2988698294552e+05 
300  6.6755816786740e-03  1.2832059949692e-04  2.9496002163856e-02  1.8545124382224e-02  6.8135362354357e-03  3.6620785685955e-03  1.5629847766832e-03  4.4061031573825e-01  0.0000000000000e+00 -1.2988698559951e+05  1.2500416411344e-01 -1.2988698419401e+05  2.5000767538660e-01 -1.2988698313519e+05  3.7500963641006e-01 -1.2988698241286e+05  5.0000894458880e-01 -1.2988698201694e+05  6.2500374922505e-01 -1.2988698193743e+05  7.5000170552600e-01 -1.2988698216441e+05  8.7500059261367e-01 -1.2988698268849e+05  1.0000000000000e+00 -1.2988698350041e+05 
400  5.7028625591148e-03  1.0897554777300e-04  2.9267985494435e-02  1.8200081961450e-02  5.8643612139581e-03  3.6623897613026e-03  1.5630394045729e-03  4.4103466647412e-01  0.0000000000000e+00 -1.2988698601011e+05  1.2500250248793e-01 -1.2988698460444e+05  2.5000438024676e-01 -1.2988698354550e+05  3.7500500510307e-01 -1.2988698282314e+05  5.0000384737863e-01 -1.2988698242721e+05  6.2500009191998e-01 -1.2988698234772e+05  7.4999923054248e-01 -1.2988698257474e+05  8.7499934335292e-01 -1.2988698309885e+05  1.0000000000000e+00 -1.2988698391076e+05 
500  4.9068282972303e-03  9.1718933604979e-05  2.9105360684446e-02  1.7953137983654e-02  5.0934903265610e-03  3.6626131040975e-03  1.5630664711352e-03  4.4135516890417e-01  0.0000000000000e+00 -1.2988698632536e+05  1.2500293446958e-01 -1.2988698491957e+05  2.5000462537939e-01 -1.2988698386056e+05  3.7500444834640e-01 -1.2988698313817e+05  5.0000250126016e-01 -1.2988698274224e+05  6.2499889171400e-01 -1.2988698266275e+05  7.4999806159640e-01 -1.2988698288980e+05  8.7499861745254e-01 -1.2988698341393e+05  1.0000000000000e+00 -1.2988698422581e+05 
600  4.2622501822744e-03  7.6855741341903e-05  2.8989948579041e-02  1.7777470851204e-02  4.4756043038518e-03  3.6627896915888e-03  1.5630656271242e-03  4.4159784843814e-01  0.0000000000000e+00 -1.2988698656808e+05  1.2500752043166e-01 -1.2988698516215e+05  2.5000932473709e-01 -1.2988698410311e+05  3.7500740490197e-01 -1.2988698338072e+05  5.0000432580206e-01 -1.2988698298478e+05  6.2500065946899e-01 -1.2988698290529e+05  7.4999940825605e-01 -1.2988698313236e+05  8.7499933112844e-01 -1.2988698365651e+05  1.0000000000000e+00 -1.2988698446836e+05 
700  3.7907410200823e-03  6.5484316022154e-05  2.8914206401783e-02  1.7663250172772e-02  4.0289114704639e-03  3.6627412337111e-03  1.5630869020242e-03  4.4175929921920e-01  0.0000000000000e+00 -1.2988698673980e+05  1.2499925168967e-01 -1.2988698533393e+05  2.4999857508022e-01 -1.2988698427489e+05  3.7499795718102e-01 -1.2988698355248e+05  4.9999729298485e-01 -1.2988698315654e+05  6.2499623367718e-01 -1.2988698307705e+05  7.4999689396583e-01 -1.2988698330415e+05  8.7499826195228e-01 -1.2988698382829e+05  1.0000000000000e+00 -1.2988698464014e+05 
800  3.4179074771573e-03  5.6188663111590e-05  2.8860661047109e-02  1.7581745132636e-02  3.6801273460034e-03  3.6628442903748e-03  1.5630937996320e-03  4.4188524774734e-01  0.0000000000000e+00 -1.2988698687369e+05  1.2499967840964e-01 -1.2988698546775e+05  2.4999936635350e-01 -1.2988698440869e+05  3.7499901921583e-01 -1.2988698368625e+05  4.9999853891933e-01 -1.2988698329033e+05  6.2499765779063e-01 -1.2988698321084e+05  7.4999802218863e-01 -1.2988698343796e+05  8.7499888080109e-01 -1.2988698396210e+05  1.0000000000000e+00 -1.2988698477394e+05 
900  3.1018259359817e-03  4.8094530306384e-05  2.8819331112851e-02  1.7518887855299e-02  3.3884901716255e-03  3.6629072128562e-03  1.5631109854439e-03  4.4198536876050e-01  0.0000000000000e+00 -1.2988698698704e+05  1.2500033218351e-01 -1.2988698558106e+05  2.5000055149873e-01 -1.2988698452196e+05  3.7500054198150e-01 -1.2988698379953e+05  5.0000020404070e-01 -1.2988698340359e+05  6.2499936037364e-01 -1.2988698332413e+05  7.4999932017486e-01 -1.2988698355125e+05  8.7499957726039e-01 -1.2988698407540e+05  1.0000000000000e+00 -1.2988698488724e+05 
934  2.9982297598899e-03  4.5399693060823e-05  2.8806446027189e-02  1.7499562027001e-02  3.2938912351691e-03  3.6628862872021e-03  1.5631242131349e-03  4.4201500933125e-01  0.0000000000000e+00 -1.2988698702438e+05  1.2499978054154e-01 -1.2988698561841e+05  2.4999956744096e-01 -1.2988698455931e+05  3.7499932990984e-01 -1.2988698383688e+05  4.9999899976607e-01 -1.2988698344095e+05  6.2499839212520e-01 -1.2988698336149e+05  7.4999863609506e-01 -1.2988698358862e+05  8.7499922601417e-01 -1.2988698411278e+05  1.0000000000000e+00 -1.2988698492462e+05 
Climbing replica = 6
Step MaxReplicaForce MaxAtomForce GradV0 GradV1 GradVc EBF EBR RDT RD1 PE1 RD2 PE2 ... RDN PEN
934  3.2938912351691e-03  2.3142612704845e-04  2.8806446027189e-02  1.7499562027001e-02  3.2938912351691e-03  3.6628862872021e-03  1.5631242131349e-03  4.4201500933125e-01  0.0000000000000e+00 -1.2988698702438e+05  1.2499978054154e-01 -1.2988698561841e+05  2.4999956744096e-01 -1.2988698455931e+05  3.7499932990984e-01 -1.2988698383688e+05  4.9999899976607e-01 -1.2988698344095e+05  6.2499839212520e-01 -1.2988698336149e+05  7.4999863609506e-01 -1.2988698358862e+05  8.7499922601417e-01 -1.2988698411278e+05  1.0000000000000e+00 -1.2988698492462e+05 
1034  3.0929397159968e-03  1.7900103367343e-04  2.8797588295833e-02  1.7486333857250e-02  3.0929397159968e-03  3.6671004781965e-03  1.5673635643907e-03  4.4203523941075e-01  0.0000000000000e+00 -1.2988698705087e+05  1.2471800738499e-01 -1.2988698564767e+05  2.4918470274289e-01 -1.2988698459162e+05  3.7305558373528e-01 -1.2988698387210e+05  4.9583987995574e-01 -1.2988698347549e+05  6.1693119115397e-01 -1.2988698338377e+05  7.4593906566573e-01 -1.2988698360304e+05  8.7336692929277e-01 -1.2988698413058e+05  1.0000000000000e+00 -1.2988698495114e+05 
1061  2.9983662516857e-03  1.5351888703539e-04  2.8792351015759e-02  1.7478597986694e-02  2.9983662516857e-03  3.6686958628707e-03  1.5689618012402e-03  4.4204740659745e-01  0.0000000000000e+00 -1.2988698706681e+05  1.2412147500812e-01 -1.2988698566949e+05  2.4788065708447e-01 -1.2988698461688e+05  3.7088854165675e-01 -1.2988698389783e+05  4.9272862406422e-01 -1.2988698349767e+05  6.1299761454898e-01 -1.2988698339812e+05  7.4314101495861e-01 -1.2988698361084e+05  8.7192561615112e-01 -1.2988698413887e+05  1.0000000000000e+00 -1.2988698496708e+05 
