LAMMPS (15 May 2015)
Processor partition = 4
#log         log.neb.lammps
#--------------------------------------------------------------------------------------------------------------------------
# create FCC structure   - copper
# box axis ox: [ 0 -1  1]
# box axis oy: [ 1  1  1]
# box axis oz: [-2  1  1]
#       |y1 [-1 -1  1]
#       |
#       |
#       |____________ x1 [ 1  1  2]
#      /o
#     /
#    /
#   /z1 [ 1 -1 0]

variable    lattice_type index fcc
variable    lattice_atom equal 4
#variable    lattice_cons equal 3.615
if   "${metal} == Al99" then "variable  lattice_cons equal 4.05 " elif "${metal} == Al03"      "variable  lattice_cons equal 4.05 " elif "${metal} == Ni"        "variable  lattice_cons equal 3.52 " elif "${metal} == Cu"        "variable  lattice_cons equal 3.615" elif "${metal} == Ag"        "variable  lattice_cons equal 4.09 " elif "${metal} == Au"        "variable  lattice_cons equal 4.08 " else "print '------- This is nothing ----'"   "quit"
variable  lattice_cons equal 3.615
print '------- This is ${metal} ---------'
------- This is Cu ---------

variable    cell_volume  equal ${lattice_cons}^3
variable    cell_volume  equal 3.615^3
variable    atom_volume  equal ${cell_volume}/${lattice_atom}*10000 # 10000 是为了使得最终的应力结果以GPa为单位而引入的参数
variable    atom_volume  equal 47.241633375/${lattice_atom}*10000 
variable    atom_volume  equal 47.241633375/4*10000 
                                                                    # metal units 中, 应力单位为bar

variable        timestep    equal 0.002
variable        u  uloop 480

atom_modify     map array sort 0 0.0    # build mapping and turn off sorting

variable        nStep   index 5064
read_restart    ./res/neb.${nStep}.$u.restart
read_restart    ./res/neb.410.$u.restart
read_restart    ./res/neb.410.5.restart
  orthogonal box = (-100 -100 -156.15) to (100 100 156.15)
  1 by 1 by 1 MPI processor grid
  37664 atoms
reset_timestep  0
# -------- potentials & neighbor -------
pair_style      eam/alloy
#pair_coeff      * * Cu_mishin1.eam.alloy Cu
if   "${metal} == Al99" then "pair_coeff  * * ../potentials/Al99.eam.alloy Al" elif "${metal} == Al03"      "pair_coeff  * * ../potentials/Al03.eam.alloy Al" elif "${metal} == Ni"        "pair_coeff  * * ../potentials/Ni99.eam.alloy Ni" elif "${metal} == Cu"        "pair_coeff  * * ../potentials/Cu_mishin1.eam.alloy Cu" elif "${metal} == Ag"        "pair_coeff  * * ../potentials/Ag.eam.alloy Ag" elif "${metal} == Au"        "pair_coeff  * * ../potentials/Au-Grochola-JCP05.eam.alloy Au" else "quit"
pair_coeff  * * ../potentials/Cu_mishin1.eam.alloy Cu

neighbor        1.0 bin
neigh_modify    every 1 delay 5 check yes
# --------------------------------------

# ----------------------- 定义统计量 ---------------------------------
compute         atomStress all stress/atom NULL
compute         atomPE all pe/atom
#---------- 每个原子的应力 -------------
variable        peratom_sxx atom c_atomStress[1]/${atom_volume}
variable        peratom_sxx atom c_atomStress[1]/118104.0834375
variable        peratom_syy atom c_atomStress[2]/${atom_volume}
variable        peratom_syy atom c_atomStress[2]/118104.0834375
variable        peratom_szz atom c_atomStress[3]/${atom_volume}
variable        peratom_szz atom c_atomStress[3]/118104.0834375
variable        peratom_sxy atom c_atomStress[4]/${atom_volume}
variable        peratom_sxy atom c_atomStress[4]/118104.0834375
variable        peratom_sxz atom c_atomStress[5]/${atom_volume}
variable        peratom_sxz atom c_atomStress[5]/118104.0834375
variable        peratom_syz atom c_atomStress[6]/${atom_volume}
variable        peratom_syz atom c_atomStress[6]/118104.0834375
#----------- all的体积 --------------
variable        p_natom equal count(all)
variable        entityVol equal ${atom_volume}*${p_natom}
variable        entityVol equal 118104.0834375*${p_natom}
variable        entityVol equal 118104.0834375*37664
#----------- all的应力 --------------
compute         sxx0 all  reduce sum c_atomStress[1]
compute         syy0 all  reduce sum c_atomStress[2]
compute         szz0 all  reduce sum c_atomStress[3]
compute         sxy0 all  reduce sum c_atomStress[4]
compute         sxz0 all  reduce sum c_atomStress[5]
compute         syz0 all  reduce sum c_atomStress[6]
variable        sxx equal c_sxx0/${entityVol}
variable        sxx equal c_sxx0/4448272198.59
variable        syy equal c_syy0/${entityVol}
variable        syy equal c_syy0/4448272198.59
variable        szz equal c_szz0/${entityVol}
variable        szz equal c_szz0/4448272198.59
variable        sxy equal c_sxy0/${entityVol}
variable        sxy equal c_sxy0/4448272198.59
variable        sxz equal c_sxz0/${entityVol}
variable        sxz equal c_sxz0/4448272198.59
variable        syz equal c_syz0/${entityVol}
variable        syz equal c_syz0/4448272198.59
# --------------------------------------------------------------------

thermo          100
thermo_style    custom step etotal pe ke temp press v_sxx v_syy v_szz v_sxy v_sxz v_syz
thermo_modify   format float %25.18g

reset_timestep  0
timestep        ${timestep}
timestep        0.002

dump            1 all custom 5000 neb.*.$u.lammpstrj id x y z v_peratom_sxx v_peratom_syy v_peratom_szz v_peratom_sxy v_peratom_sxz v_peratom_syz c_atomPE
dump            1 all custom 5000 neb.*.5.lammpstrj id x y z v_peratom_sxx v_peratom_syy v_peratom_szz v_peratom_sxy v_peratom_sxz v_peratom_syz c_atomPE
dump_modify     1 sort id
restart         5000 neb.*.$u.restart
restart         5000 neb.*.5.restart

fix             1 boundary setforce 0 0 0
variable        kspring     index 1.0
fix             2 mobile neb ${kspring}
fix             2 mobile neb 1.0

min_style       quickmin
variable        etol    index 0.0
variable        ftol    index 0.01
variable        nudgeStep index 400000
variable        climbStep index 400000
neb             ${etol} ${ftol} ${nudgeStep} ${climbStep} 100 none
neb             0.0 ${ftol} ${nudgeStep} ${climbStep} 100 none
neb             0.0 0.003 ${nudgeStep} ${climbStep} 100 none
neb             0.0 0.003 400000 ${climbStep} 100 none
neb             0.0 0.003 400000 400000 100 none
WARNING: Resetting reneighboring criteria during minimization (../min.cpp:168)
Neighbor list info ...
  1 neighbor list requests
  update every 1 steps, delay 0 steps, check yes
  master list distance cutoff = 6.50679
Memory usage per processor = 25.009 Mbytes
Step TotEng PotEng KinEng Temp Press sxx syy szz sxy sxz syz 
       0      -129886.980423148081      -129886.980423148081                         0                         0      -107.805118311533406    -0.0892400767900355663     -0.092033453090818243       1.08951539493280802    0.00150165966465560488  -0.000525619085705641108   0.000520742726232593521 
     100      -129886.980419184198      -129886.980712448611   0.000293264407683561175   6.02392850217426277e-05       -107.81024263596322    -0.0892696679360288625    -0.0919706572354741236       1.08952536188403504    0.00141773375493395759  -0.000491280865280721937   0.000576963739191088763 
     200       -129886.98041388781       -129886.98146267033    0.00104878252138540387   0.000215429856389963258      -107.822170265340404    -0.0893757441423688598    -0.0917858425678074602       1.08954711190158071    0.00118137782903316303  -0.000390887029825071801    0.00075219515978710487 
     300       -129886.98146154017      -129886.982016937589   0.000555397425751771954   0.000114083887964691914      -107.829645451769252    -0.0894911490894237938    -0.0916199615598395217       1.08955961315908301   0.000985057593027345666  -0.000303041166870413362   0.000920181069239817281 
     400      -129886.982141697197      -129886.982427208844   0.000285511648463516294   5.86467948997733987e-05      -107.834353392090776    -0.0896058656373372869    -0.0914727299133015065       1.08956676174771605   0.000824313479339768636  -0.000227171357650056784    0.00107639344617110454 
     500      -129886.982595124777      -129886.982742244654   0.000147119883303768045   3.02198164881430872e-05       -107.83760665067868    -0.0897167453294175077    -0.0913391325860232473       1.08957145232556152   0.000689880199836711552  -0.000160346399957882825    0.00122307000527685874 
     600      -129886.982909239086      -129886.982984780232   7.55411383963099835e-05     1.551686480697092e-05      -107.840080662397753    -0.0898190277932643805    -0.0912197339261470869       1.08957517930517334   0.000578934128854759569   -0.00010238151950719183    0.00135786716676196081 
     700       -129886.98290866382      -129886.983156541217    0.00024787739586069245   5.09163632151757553e-05       -107.84195891094312    -0.0899017320920528218    -0.0911243593600514074       1.08957833299862239   0.000496380086132868024  -5.72324759753468001e-05    0.00146822868384824412 
     800      -129886.983140991826       -129886.98329032601   0.000149334178211206551   3.06746536199484194e-05      -107.843646550297024    -0.0899721500667985674    -0.0910429465705091395       1.08958155629089881   0.000430162756127291902  -1.95137285619172348e-05    0.00156454528717557572 
     900      -129886.983314186698      -129886.983403592458   8.94057550809482357e-05   1.83647882995630591e-05      -107.845308531161777    -0.0900355446114072394    -0.0909690611727849707        1.0895850673759464   0.000373328822768619539   1.41811845547095277e-05    0.00165404918038174848 
     934      -129886.983314081532      -129886.983440951226   0.000126869691074828162   2.60602353406741415e-05      -107.845915434594943    -0.0900570807290252823    -0.0909437708238713532       1.08958642621454693   0.000354567883173803481   2.56226718713595117e-05    0.00168524052676211045 
Loop time of 91.5167 on 1 procs for 934 steps with 37664 atoms

Minimization stats:
  Stopping criterion = force tolerance
  Energy initial, next-to-last, final = 
        -129886.980423      -129886.98344     -129886.983441
  Force two-norm initial, final = 0.00996227 0.00299759
  Force max component initial, final = 0.000213588 4.53933e-05
  Final line search alpha, max atom move = 0 0
  Iterations, force evaluations = 934 934

Pair  time (%) = 85.3795 (93.2939)
Neigh time (%) = 0.069098 (0.0755031)
Comm  time (%) = 0.00258589 (0.00282559)
Outpt time (%) = 0.0168192 (0.0183783)
Other time (%) = 6.04869 (6.60939)

Nlocal:    37664 ave 37664 max 37664 min
Histogram: 1 0 0 0 0 0 0 0 0 0
Nghost:    0 ave 0 max 0 min
Histogram: 1 0 0 0 0 0 0 0 0 0
Neighs:    1.52299e+06 ave 1.52299e+06 max 1.52299e+06 min
Histogram: 1 0 0 0 0 0 0 0 0 0

Total # of neighbors = 1522989
Ave neighs/atom = 40.4362
Neighbor list builds = 1
Dangerous builds = 0
WARNING: Resetting reneighboring criteria during minimization (../min.cpp:168)
Memory usage per processor = 25.009 Mbytes
Step TotEng PotEng KinEng Temp Press sxx syy szz sxy sxz syz 
     934      -129886.983440951226      -129886.983440951226                         0                         0      -107.845926282471751    -0.0900570397205348316    -0.0909437448502138507       1.08958645062412662   0.000354576298839015547   2.56155057416704606e-05    0.00168524859439274561 
    1000      -129886.983442747791      -129886.983455074092   1.23262956942796444e-05   2.53193780130043546e-06      -107.846109347776576    -0.0900637746057730004    -0.0909362811131530363       1.08958726406990003   0.000349321038561819684   2.85788718820976336e-05    0.00169370862406072165 
    1061      -129886.983452250497      -129886.983497670299   4.54197962855581211e-05    9.3296560455010559e-06      -107.846589246096215    -0.0900817658314701369    -0.0909171467404688294       1.08959016399389785   0.000336404479691763253    3.5365257069963594e-05    0.00171401828641913286 
Loop time of 12.768 on 1 procs for 127 steps with 37664 atoms

Minimization stats:
  Stopping criterion = force tolerance
  Energy initial, next-to-last, final = 
        -129886.983441     -129886.983497     -129886.983498
  Force two-norm initial, final = 0.00299759 0.00296312
  Force max component initial, final = 4.53933e-05 0.000133984
  Final line search alpha, max atom move = 0 0
  Iterations, force evaluations = 127 127

Pair  time (%) = 11.7191 (91.785)
Neigh time (%) = 0.0690241 (0.540602)
Comm  time (%) = 0.000660181 (0.00517059)
Outpt time (%) = 0.00189614 (0.0148507)
Other time (%) = 0.97731 (7.65437)

Nlocal:    37664 ave 37664 max 37664 min
Histogram: 1 0 0 0 0 0 0 0 0 0
Nghost:    0 ave 0 max 0 min
Histogram: 1 0 0 0 0 0 0 0 0 0
Neighs:    1.52299e+06 ave 1.52299e+06 max 1.52299e+06 min
Histogram: 1 0 0 0 0 0 0 0 0 0

Total # of neighbors = 1522986
Ave neighs/atom = 40.4361
Neighbor list builds = 1
Dangerous builds = 0

