ITEM: TIMESTEP
934
ITEM: NUMBER OF ATOMS
37664
ITEM: BOX BOUNDS ff ff ff
-100 100
-100 100
-156.15 156.15
ITEM: ATOMS id x y z v_peratom_sxx v_peratom_syy v_peratom_szz v_peratom_sxy v_peratom_sxz v_peratom_syz c_atomPE 
1 -0.00369578 -0.00218799 0.00106266 -5.17905 -5.17178 -9.53873 0.000223632 -0.0114396 -0.0280832 -3.51527 
2 -0.0039948 -0.00207341 2.55431 -5.17832 -5.17099 -9.53772 -0.000190796 -0.0135555 -0.0269057 -3.51527 
3 -0.00432029 -0.00190478 5.10762 -5.17312 -5.16608 -9.527 -0.000845498 -0.0138528 -0.0256323 -3.51532 
4 -0.00465871 -0.00168632 7.66114 -5.16265 -5.15646 -9.50508 -0.00173263 -0.0118098 -0.0244151 -3.51541 
5 -0.00498593 -0.00143204 10.215 -5.14592 -5.14127 -9.46985 -0.00276829 -0.00729278 -0.02327 -3.51557 
6 -0.00527017 -0.00116185 12.7694 -5.12185 -5.11934 -9.41867 -0.00380643 -0.000644242 -0.0220657 -3.5158 
7 -0.00547798 -0.000895971 15.3246 -5.08909 -5.08911 -9.34833 -0.00468429 0.00737874 -0.0205951 -3.51612 
8 -0.00558115 -0.000650113 17.8809 -5.04578 -5.04841 -9.25495 -0.00527424 0.0157956 -0.0186847 -3.51655 
9 -0.00556225 -0.000433088 20.4386 -4.98923 -4.99421 -9.13384 -0.00551652 0.0236353 -0.0162806 -3.5171 
10 -0.00541728 -0.000247226 22.998 -4.91556 -4.92239 -8.97952 -0.0054245 0.0301264 -0.0134819 -3.5178 
11 -0.00515501 -9.0674e-05 25.5597 -4.8195 -4.82754 -8.78638 -0.00506868 0.0348033 -0.0105201 -3.51866 
12 -0.00479395 3.96835e-05 28.124 -4.69467 -4.7033 -8.55026 -0.00454963 0.037527 -0.00770075 -3.51969 
13 -0.00435769 0.000145895 30.6914 -4.53512 -4.54377 -8.27162 -0.00396943 0.0384419 -0.00532377 -3.52089 
14 -0.00387006 0.000228005 33.262 -4.3391 -4.34737 -7.95919 -0.00340906 0.0378943 -0.00360294 -3.52219 
15 -0.00335096 0.000284476 35.8358 -4.11436 -4.12198 -7.6305 -0.00291679 0.0363393 -0.00261558 -3.52347 
16 -0.0028139 0.00031309 38.4125 -3.87687 -3.88372 -7.30391 -0.00250825 0.0342431 -0.00230895 -3.52458 
17 -0.0022649 0.000311283 40.9917 -3.63822 -3.64424 -6.98589 -0.00217248 0.0320126 -0.00256033 -3.52548 
18 -0.00170007 0.000275959 43.5731 -3.39937 -3.40454 -6.6637 -0.00187582 0.0300372 -0.00323073 -3.5262 
19 -0.00110151 0.000203034 46.1569 -3.13514 -3.13932 -6.30055 -0.00154872 0.0286929 -0.00417224 -3.52695 
20 -0.00044 8.41586e-05 48.7435 -2.75191 -2.75415 -5.8611 -0.000859719 0.027797 -0.00533108 -3.52782 
21 5.95933e-07 -4.11185e-08 51.3317 -1.92308 -1.92292 -4.91981 7.95605e-05 -0.00140538 0.000264283 -3.53203 
22 4.01304e-07 -1.42881e-06 53.9138 -0.851897 -0.851906 -8.91777 9.06781e-07 -2.8209e-05 -7.1331e-05 -3.48169 
23 8.71386e-07 -1.98378e-06 56.3885 1.68559 1.6856 1.87689 -1.52021e-05 2.36837e-05 -3.37134e-07 -2.55581 
24 -1.23087e-07 -1.12453e-06 -53.8876 -2.60697 -2.60699 -6.54961 -1.83788e-05 1.07411e-05 -3.23331e-05 -3.40183 
25 1.02659e-07 -1.55837e-06 -51.3239 -2.07911 -2.07928 -5.57926 -0.000270418 0.000697905 0.00146336 -3.52873 
26 -0.000178787 -0.000417026 -48.7462 -2.69404 -2.69153 -6.147 0.00356571 -0.0113338 -0.0260455 -3.5264 
27 -0.000416404 -0.00100499 -46.1646 -3.02109 -3.0166 -6.34694 0.00631267 -0.00953192 -0.0243806 -3.52678 
28 -0.000591084 -0.00145407 -43.5822 -3.3027 -3.29644 -6.6073 0.00694578 -0.00627724 -0.0231653 -3.52635 
29 -0.000707069 -0.00179834 -41.0007 -3.55835 -3.55011 -6.89574 0.00689449 -0.0027094 -0.022367 -3.52575 
30 -0.000784157 -0.00205689 -38.4209 -3.80889 -3.79865 -7.20468 0.0063782 0.000884634 -0.0218185 -3.52491 
31 -0.000844245 -0.00224115 -35.8434 -4.05558 -4.04356 -7.53006 0.00550812 0.00419974 -0.0214281 -3.52385 
32 -0.000909528 -0.0023609 -33.2685 -4.28897 -4.27564 -7.86071 0.00441096 0.00689814 -0.021208 -3.52261 
33 -0.000999701 -0.0024272 -30.6968 -4.49598 -4.48195 -8.17899 0.00324778 0.00871278 -0.0212258 -3.52132 
34 -0.0011283 -0.00245256 -28.1283 -4.66805 -4.654 -8.46772 0.00218556 0.00954439 -0.0215493 -3.5201 
35 -0.00130008 -0.00244949 -25.5629 -4.80419 -4.79072 -8.71633 0.00135253 0.00949754 -0.0221993 -3.51901 
36 -0.00151061 -0.00242901 -23.0002 -4.90845 -4.89598 -8.92185 0.000805256 0.00882588 -0.0231317 -3.5181 
37 -0.00174847 -0.00239988 -20.4398 -4.98671 -4.97547 -9.08667 0.000523957 0.00780911 -0.0242574 -3.51736 
38 -0.00199921 -0.00236884 -17.8814 -5.04478 -5.03478 -9.21586 0.000436045 0.0066252 -0.0254753 -3.51677 
39 -0.00224978 -0.00234114 -15.3244 -5.08755 -5.07865 -9.31523 0.000453369 0.00528014 -0.0266902 -3.51632 
40 -0.00249202 -0.00232043 -12.7686 -5.11884 -5.11082 -9.3903 0.000504343 0.00362749 -0.0278065 -3.51597 
41 -0.00272421 -0.00230767 -10.2138 -5.14153 -5.13413 -9.44588 0.000547538 0.00146666 -0.0287112 -3.51571 
42 -0.00295092 -0.00229932 -7.65951 -5.15773 -5.15066 -9.48594 0.000564657 -0.00132345 -0.0292732 -3.51553 
43 -0.00318125 -0.00228626 -5.10572 -5.16887 -5.16189 -9.51351 0.000540903 -0.00466764 -0.0293739 -3.5154 
44 -0.00342628 -0.00225449 -2.55224 -5.17586 -5.16877 -9.53073 0.000445409 -0.00823262 -0.0289593 -3.51532 
45 0.0924196 2.15789 1.27692 -4.056 -5.14033 -3.8375 -0.0511586 -0.451986 0.00353338 -3.52907 
46 0.0657519 2.15903 3.83011 -4.05003 -5.1395 -3.83167 -0.0397312 -0.452207 -0.00559754 -3.52908 
47 0.0390824 2.15988 6.38343 -4.04483 -5.13634 -3.81754 -0.0282837 -0.450866 -0.0151364 -3.5291 
48 0.0124617 2.16043 8.93703 -4.04109 -5.13063 -3.79383 -0.0166029 -0.448004 -0.0253489 -3.52913 
49 -0.0140561 2.16065 11.4911 -4.03979 -5.12198 -3.7589 -0.00453002 -0.443993 -0.0364283 -3.52917 
50 -0.0404226 2.16052 14.0458 -4.04184 -5.10966 -3.71067 0.00792065 -0.439414 -0.0485619 -3.52922 
51 -0.0666023 2.16003 16.6015 -4.04771 -5.09245 -3.64651 0.0205002 -0.434881 -0.0619995 -3.52928 
52 -0.0925771 2.15917 19.1584 -4.05709 -5.06844 -3.5631 0.0327356 -0.430877 -0.0770722 -3.52935 
53 -0.118346 2.15795 21.7168 -4.06852 -5.03469 -3.45635 0.0439874 -0.427677 -0.0941181 -3.52943 
54 -0.143925 2.15639 24.2772 -4.0788 -4.98697 -3.32164 0.0535317 -0.42533 -0.113267 -3.52953 
55 -0.169337 2.15452 26.8399 -4.08215 -4.91928 -3.1546 0.0606705 -0.423694 -0.134039 -3.52967 
56 -0.194612 2.15241 29.4055 -4.06911 -4.82391 -2.95275 0.0649082 -0.422484 -0.154776 -3.52986 
57 -0.219771 2.15014 31.9742 -4.02638 -4.69273 -2.7182 0.0662366 -0.421304 -0.172341 -3.53012 
58 -0.24482 2.14783 34.5463 -3.94012 -4.52133 -2.45993 0.0654477 -0.419661 -0.183238 -3.53047 
59 -0.269735 2.1455 37.1216 -3.80476 -4.31512 -2.19217 0.0640932 -0.416976 -0.187184 -3.53087 
60 -0.294475 2.1431 39.6996 -3.62858 -4.08876 -1.92639 0.063737 -0.412779 -0.189218 -3.53128 
61 -0.319016 2.14052 42.2798 -3.42351 -3.853 -1.66291 0.0650921 -0.407164 -0.195437 -3.53164 
62 -0.343394 2.13769 44.8621 -3.19601 -3.6047 -1.39035 0.0674021 -0.400696 -0.212417 -3.53193 
63 -0.367768 2.13484 47.4464 -2.91616 -3.29373 -1.1061 0.0673335 -0.395799 -0.231877 -3.53223 
64 -0.392512 2.13371 50.032 -2.43434 -2.80059 -0.495153 0.0605478 -0.414678 -0.201194 -3.53323 
65 -0.418483 2.1304 52.6263 -1.76576 -2.00552 -0.561411 0.0455094 -0.308933 -0.72999 -3.52457 
66 -0.44812 2.14653 55.1778 6.97659 7.73843 2.4309 0.0330141 -0.597323 1.77022 -3.02528 
67 0.649859 2.05055 -55.162 1.38944 0.84238 -0.678385 -0.188253 -0.099198 1.20761 -3.26036 
68 0.633027 2.08274 -52.6122 -1.11195 -2.21867 -0.457719 -0.37449 -0.489286 -0.161468 -3.53566 
69 0.607028 2.08678 -50.0319 -2.00272 -2.55468 -0.871324 -0.170306 -0.429547 0.0813248 -3.53398 
70 0.581317 2.08835 -47.4532 -2.63744 -3.07106 -1.2062 -0.127035 -0.40334 0.155206 -3.5329 
71 0.556511 2.09191 -44.8711 -3.05874 -3.44038 -1.36616 -0.106736 -0.397713 0.198658 -3.53225 
72 0.531892 2.09624 -42.2892 -3.35761 -3.72588 -1.59509 -0.0982256 -0.401481 0.210235 -3.53183 
73 0.507164 2.10078 -39.7085 -3.60122 -3.98185 -1.84575 -0.0970601 -0.406887 0.216154 -3.53141 
74 0.482232 2.1054 -37.1298 -3.80343 -4.21988 -2.10942 -0.101484 -0.411851 0.219645 -3.53098 
75 0.457092 2.11011 -34.5537 -3.9611 -4.43488 -2.37896 -0.109855 -0.415992 0.218379 -3.53055 
76 0.431776 2.11491 -31.9806 -4.06995 -4.61707 -2.64228 -0.119845 -0.419616 0.20965 -3.53018 
77 0.406312 2.11973 -29.4107 -4.13332 -4.76123 -2.88567 -0.128926 -0.423016 0.193449 -3.52988 
78 0.380713 2.12449 -26.8441 -4.16159 -4.86946 -3.09907 -0.135241 -0.426228 0.172357 -3.52965 
79 0.354987 2.12908 -24.2805 -4.1667 -4.94815 -3.27825 -0.137972 -0.429167 0.149432 -3.52948 
80 0.32914 2.13343 -21.7193 -4.15855 -5.00447 -3.42374 -0.137126 -0.431767 0.126927 -3.52936 
81 0.303183 2.13748 -19.1602 -4.14411 -5.04468 -3.53892 -0.133153 -0.43405 0.106085 -3.52927 
82 0.277128 2.14121 -16.6027 -4.12784 -5.07357 -3.62824 -0.126652 -0.436126 0.0873898 -3.52921 
83 0.250987 2.1446 -14.0466 -4.11224 -5.09454 -3.69623 -0.118213 -0.438166 0.0708736 -3.52916 
84 0.224765 2.14764 -11.4914 -4.09852 -5.10994 -3.747 -0.108352 -0.440349 0.0563558 -3.52912 
85 0.198462 2.15034 -8.93699 -4.087 -5.12131 -3.78398 -0.0975139 -0.442783 0.0435763 -3.5291 
86 0.172075 2.1527 -6.3831 -4.07747 -5.1296 -3.8099 -0.0860867 -0.445447 0.0322465 -3.52908 
87 0.145601 2.15473 -3.82957 -4.06945 -5.13539 -3.82676 -0.0744016 -0.448136 0.022047 -3.52907 
88 0.119045 2.15646 -1.27627 -4.06243 -5.13895 -3.83579 -0.0627127 -0.450477 0.0126117 -3.52906 
89 0.215384 4.32456 -0.000177754 -3.39635 -4.74662 -3.30053 -0.0738595 -0.932223 0.037973 -3.53364 
90 0.285201 6.49698 1.27573 -2.77669 -4.34864 -2.86383 -0.0791186 -1.36004 0.0489294 -3.53381 
91 2.20515 2.73546 0.000422767 -3.39165 -3.54836 -3.0521 -0.416439 -0.328976 0.248076 -3.52983 
92 2.17133 2.76218 2.55357 -3.37633 -3.55693 -3.05086 -0.416334 -0.335236 0.24018 -3.52983 
93 2.29128 4.92679 1.27596 -2.72836 -3.57421 -2.73145 -0.346133 -0.805189 0.0123177 -3.53335 
94 4.288 3.33543 1.2776 -3.40179 -2.90201 -2.72834 -0.498785 -0.212811 0.760395 -3.53335 
95 0.162268 4.327 2.55279 -3.38577 -4.74721 -3.29785 -0.0592647 -0.932543 0.0198477 -3.53365 
96 0.109149 4.3288 5.10583 -3.37773 -4.74741 -3.2889 -0.0443282 -0.931074 0.00139066 -3.53366 
97 0.205598 6.50006 3.82842 -2.76484 -4.35015 -2.85841 -0.0612013 -1.35876 0.0229545 -3.53382 
98 2.23073 4.9543 3.829 -2.71273 -3.58262 -2.7273 -0.336654 -0.806716 -0.00369134 -3.53335 
99 0.126086 6.50211 6.38123 -2.7582 -4.35292 -2.84814 -0.0425689 -1.35608 -0.00360496 -3.53383 
100 4.24673 3.3873 3.83068 -3.38481 -2.91492 -2.72313 -0.50523 -0.22749 0.753859 -3.53336 
101 2.13715 2.78843 5.10681 -3.36174 -3.56664 -3.04297 -0.414733 -0.340643 0.232351 -3.52983 
102 2.10267 2.81421 7.66027 -3.34852 -3.57785 -3.02756 -0.411127 -0.345332 0.224405 -3.52983 
103 2.16988 4.98096 6.3822 -2.70009 -3.59265 -2.71672 -0.325071 -0.807214 -0.0198132 -3.53336 
104 4.20479 3.43856 6.38393 -3.36951 -2.93056 -2.71167 -0.509344 -0.241701 0.747078 -3.53336 
105 0.0561093 4.32994 7.65906 -3.37373 -4.74738 -3.27301 -0.0288035 -0.928045 -0.0178056 -3.53368 
106 0.0032286 4.33039 10.2127 -3.3755 -4.74722 -3.24922 -0.0125733 -0.924037 -0.0381248 -3.53369 
107 0.0467676 6.50312 8.93431 -2.75877 -4.3573 -2.83251 -0.0232406 -1.35274 -0.0312872 -3.53383 
108 2.10879 5.00673 8.93568 -2.69187 -3.60449 -2.6989 -0.311057 -0.807135 -0.0365048 -3.53336 
109 -0.032277 6.50306 11.4878 -2.76816 -4.36353 -2.81081 -0.00342859 -1.34958 -0.0606791 -3.53382 
110 4.16223 3.48918 8.93746 -3.35673 -2.94927 -2.69314 -0.510644 -0.25582 0.73987 -3.53336 
111 2.06793 2.83947 10.2141 -3.33757 -3.5907 -3.00334 -0.405013 -0.349644 0.2161 -3.52983 
112 2.03297 2.86418 12.7685 -3.32984 -3.60507 -2.96864 -0.396012 -0.354126 0.207087 -3.52982 
113 2.04754 5.03159 11.4896 -2.68947 -3.61811 -2.67271 -0.294453 -0.807155 -0.0543707 -3.53336 
114 4.11909 3.53911 11.4914 -3.34735 -2.97126 -2.66633 -0.508704 -0.270394 0.73197 -3.53336 
115 -0.0494288 4.33014 12.7668 -3.38454 -4.74684 -3.21623 0.00426485 -0.919788 -0.0599887 -3.5337 
116 -0.101821 4.32917 15.3217 -3.40178 -4.74579 -3.17228 0.0213907 -0.915951 -0.0839073 -3.53371 
117 -0.111 6.50191 14.0419 -2.78729 -4.37167 -2.78189 0.0165027 -1.34731 -0.0924554 -3.5338 
118 1.98617 5.05551 14.0442 -2.69398 -3.63322 -2.63668 -0.275267 -0.808052 -0.0741637 -3.53336 
119 -0.189383 6.49966 16.5968 -2.81639 -4.38138 -2.74401 0.0361102 -1.34635 -0.127384 -3.53376 
120 4.07541 3.58832 14.046 -3.34216 -2.99653 -2.62965 -0.503191 -0.286132 0.72298 -3.53336 
121 1.99783 2.88833 15.3237 -3.32605 -3.62047 -2.92135 -0.383914 -0.359463 0.196885 -3.52981 
122 1.96253 2.91188 17.8799 -3.32642 -3.63594 -2.85889 -0.368661 -0.366389 0.184898 -3.52979 
123 1.92469 5.07844 16.5996 -2.70602 -3.64921 -2.58894 -0.253622 -0.810587 -0.0967473 -3.53335 
124 4.03118 3.63678 16.6015 -3.34159 -3.02488 -2.5811 -0.493858 -0.303855 0.712337 -3.53335 
125 -0.153929 4.32747 17.8776 -3.42743 -4.74309 -3.11492 0.0383139 -0.912942 -0.110478 -3.5337 
126 -0.205756 4.32504 20.4348 -3.46088 -4.73701 -3.04084 0.0544447 -0.910879 -0.140304 -3.5337 
127 -0.267429 6.49629 19.1527 -2.85513 -4.39184 -2.69462 0.0549458 -1.34673 -0.166274 -3.53371 
128 1.8631 5.10038 19.1561 -2.72561 -3.66507 -2.52703 -0.229693 -0.815416 -0.123016 -3.53334 
129 -0.345149 6.49181 21.7099 -2.90255 -4.40137 -2.63015 0.0726085 -1.34815 -0.20983 -3.53364 
130 3.98643 3.68447 19.158 -3.34561 -3.05571 -2.51823 -0.480513 -0.324423 0.699318 -3.53334 
131 1.92706 2.93483 20.4374 -3.33042 -3.64994 -2.77815 -0.350296 -0.375575 0.170473 -3.52976 
132 1.89142 2.95717 22.9967 -3.3364 -3.66003 -2.67551 -0.328968 -0.38751 0.15304 -3.52973 
133 1.80141 5.1213 21.7141 -2.75207 -3.67918 -2.44792 -0.203679 -0.823041 -0.153747 -3.53331 
134 3.94113 3.73134 21.716 -3.35351 -3.08789 -2.43818 -0.463034 -0.348628 0.683111 -3.53332 
135 -0.257316 4.32189 22.9936 -3.50039 -4.7247 -2.94585 0.069148 -0.90961 -0.173793 -3.53369 
136 -0.308636 4.31809 25.5544 -3.54248 -4.70165 -2.82503 0.0817664 -0.908809 -0.210758 -3.5337 
137 -0.42256 6.48626 24.2687 -2.9568 -4.40698 -2.5459 0.0887565 -1.35001 -0.258337 -3.53357 
138 1.73959 5.14119 24.2738 -2.7837 -3.689 -2.34809 -0.175871 -0.833755 -0.189331 -3.53328 
139 -0.499677 6.47972 26.8296 -3.01436 -4.40369 -2.43608 0.103061 -1.35157 -0.311119 -3.53351 
140 3.89529 3.77739 24.2756 -3.36354 -3.11935 -2.33767 -0.441478 -0.376994 0.662983 -3.53329 
141 1.85561 2.97892 25.558 -3.34101 -3.66236 -2.54716 -0.305011 -0.402276 0.13239 -3.52968 
142 1.81965 3.00011 28.1218 -3.33828 -3.65092 -2.38975 -0.279174 -0.419166 0.109182 -3.52962 
143 1.67763 5.16011 26.8357 -2.81711 -3.69051 -2.22383 -0.14684 -0.847491 -0.229287 -3.53323 
144 3.84894 3.8226 26.8375 -3.37228 -3.14639 -2.21332 -0.41631 -0.409386 0.63863 -3.53324 
145 -0.359743 4.31371 28.1177 -3.58079 -4.661 -2.67344 0.0916334 -0.90809 -0.249795 -3.53373 
146 -0.410665 4.3089 30.684 -3.60445 -4.59322 -2.48773 0.0981594 -0.907067 -0.287587 -3.53381 
147 -0.576511 6.47235 29.393 -3.06871 -4.3835 -2.2945 0.11509 -1.35214 -0.365732 -3.53348 
148 1.61557 5.17816 29.4002 -2.84603 -3.67757 -2.07199 -0.117761 -0.863445 -0.271489 -3.53318 
149 -0.653075 6.46443 31.9595 -3.10834 -4.33453 -2.11638 0.12418 -1.35123 -0.417216 -3.5335 
150 3.80215 3.86706 29.4019 -3.37366 -3.16272 -2.06203 -0.388759 -0.444328 0.610814 -3.53318 
151 1.78358 3.02085 30.6886 -3.31846 -3.61691 -2.2018 -0.252937 -0.436127 0.085675 -3.52957 
152 1.74754 3.04133 33.2587 -3.26788 -3.54916 -1.98545 -0.22868 -0.449498 0.0661184 -3.52956 
153 1.55348 5.19556 31.9678 -2.85962 -3.64115 -1.89107 -0.0907363 -0.879385 -0.311304 -3.53312 
154 3.75509 3.91089 31.9693 -3.35744 -3.15832 -1.88197 -0.361128 -0.478159 0.582218 -3.53311 
155 -0.461414 4.30389 33.2536 -3.59728 -4.48693 -2.26907 0.101109 -0.905207 -0.318939 -3.53397 
156 -0.511964 4.2989 35.8266 -3.54121 -4.3332 -2.02616 0.101069 -0.901544 -0.339272 -3.53423 
157 -0.729363 6.45635 34.5294 -3.11536 -4.24126 -1.90201 0.129521 -1.34828 -0.458471 -3.53363 
158 1.4915 5.21268 34.5386 -2.84145 -3.56918 -1.68282 -0.068702 -0.890993 -0.341668 -3.53308 
159 -0.805316 6.44849 37.103 -3.06823 -4.08898 -1.66158 0.130827 -1.34191 -0.483769 -3.53389 
160 3.70806 3.95433 34.54 -3.30824 -3.11917 -1.67431 -0.336601 -0.504953 0.557847 -3.53308 
161 1.7117 3.06174 35.8321 -3.17232 -3.43762 -1.74795 -0.209064 -0.455306 0.0550918 -3.52962 
162 1.6762 3.0822 38.4085 -3.02599 -3.28049 -1.5001 -0.195197 -0.453059 0.0522802 -3.52978 
163 1.42989 5.2299 37.1129 -2.77232 -3.44888 -1.45415 -0.0543183 -0.892906 -0.356566 -3.53314 
164 3.66142 3.99768 37.1141 -3.20771 -3.03095 -1.44573 -0.317977 -0.519209 0.542907 -3.53313 
165 -0.562238 4.29398 38.4028 -3.42713 -4.13434 -1.77422 0.0997257 -0.89482 -0.350058 -3.53458 
166 -0.612147 4.28897 40.9816 -3.26245 -3.90644 -1.52571 0.0993235 -0.884431 -0.360244 -3.53492 
167 -0.880809 6.44093 39.6798 -2.95512 -3.8773 -1.41506 0.129369 -1.33033 -0.496146 -3.53425 
168 1.36885 5.24742 39.6902 -2.64153 -3.27558 -1.21694 -0.0479495 -0.88376 -0.359182 -3.53331 
169 -0.955735 6.4334 42.259 -2.78436 -3.62637 -1.1803 0.127882 -1.31342 -0.508322 -3.53461 
170 3.61542 4.04109 39.6913 -3.04548 -2.8886 -1.20864 -0.30565 -0.522054 0.536053 -3.5333 
171 1.64104 3.10262 40.9876 -2.83719 -3.08668 -1.24969 -0.185388 -0.447925 0.0497425 -3.53 
172 1.60614 3.12288 43.5687 -2.61584 -2.86435 -0.994406 -0.177105 -0.446382 0.0392404 -3.53027 
173 1.30846 5.26509 42.2698 -2.45546 -3.05848 -0.981343 -0.0467584 -0.869976 -0.363865 -3.53355 
174 3.57001 4.08447 42.2709 -2.8289 -2.7006 -0.974817 -0.297429 -0.52323 0.526463 -3.53354 
175 -0.661675 4.28369 43.5624 -3.05834 -3.66003 -1.28021 0.101043 -0.871174 -0.378168 -3.53523 
176 -0.710993 4.27811 46.1447 -2.82677 -3.3934 -1.01801 0.10412 -0.857227 -0.409103 -3.53549 
177 -1.03015 6.42571 44.8395 -2.56305 -3.34341 -0.96423 0.127791 -1.29346 -0.525471 -3.53495 
178 1.24856 5.28277 44.851 -2.22138 -2.80256 -0.748935 -0.0489783 -0.859981 -0.382053 -3.53386 
179 -1.10443 6.41817 47.4204 -2.29845 -3.01766 -0.779251 0.130003 -1.27507 -0.537616 -3.53528 
180 3.52497 4.12776 44.852 -2.5633 -2.47452 -0.750045 -0.290657 -0.531602 0.505625 -3.53383 
181 1.57129 3.14295 46.1516 -2.36653 -2.61633 -0.716781 -0.169963 -0.455928 0.0125918 -3.53054 
182 1.53636 3.16327 48.7364 -2.09018 -2.36101 -0.346036 -0.182734 -0.478806 -0.0259305 -3.53015 
183 1.1887 5.30046 47.4331 -1.94583 -2.50561 -0.51804 -0.062865 -0.866552 -0.426584 -3.53411 
184 3.48005 4.171 47.4338 -2.24251 -2.22062 -0.541957 -0.285327 -0.557946 0.462267 -3.53403 
185 -0.76061 4.27328 48.7285 -2.60409 -3.07516 -0.672053 0.0974572 -0.849639 -0.413234 -3.53515 
186 -0.811621 4.26877 51.3169 -1.98847 -2.35117 0.310515 0.0838845 -0.84171 -0.653436 -3.53805 
187 -1.17889 6.41384 50.0002 -2.05966 -2.54262 -0.336545 0.0873543 -1.28001 -0.616733 -3.53572 
188 1.12775 5.31799 50.0156 -1.56907 -2.0788 -0.0206369 -0.110957 -0.945826 -0.595135 -3.53485 
189 -1.25707 6.40546 52.5877 -1.61236 -2.48689 0.64329 0.175758 -1.31617 -0.613148 -3.53282 
190 3.43505 4.21346 50.0156 -1.75825 -1.85272 -0.0377832 -0.309224 -0.668242 0.314295 -3.53491 
191 1.50027 3.18358 51.3264 -1.43157 -1.70133 0.658621 -0.172626 -0.548365 -0.133357 -3.53273 
192 1.46587 3.20964 53.9052 0.0267057 0.953997 -0.795855 0.56631 -0.56098 0.138977 -3.37565 
193 1.06597 5.33731 52.6041 -1.24921 -1.89854 0.44148 -0.236969 -0.801328 -0.41083 -3.52779 
194 3.38747 4.26008 52.6041 -1.41016 -1.71355 0.38983 -0.390659 -0.63945 0.587315 -3.52746 
195 -0.866323 4.2769 53.8949 -0.0508727 -0.206132 -1.18049 0.0793765 -1.26166 1.02744 -3.38132 
196 1.3298 4.1174 -56.3442 5.06942 2.90559 1.60242 -1.25473 -0.273892 0.110264 -2.79034 
197 -1.33605 6.40133 55.1665 4.18006 2.79745 1.28995 0.319923 -1.5232 0.197876 -3.26107 
198 1.00488 5.36129 55.1754 5.64207 6.63186 2.70774 0.369859 -0.63646 -0.0326215 -3.15047 
199 1.98371 6.26223 -55.1334 6.93988 9.11553 2.92916 0.134188 -0.847907 -0.525656 -3.02309 
200 3.34328 4.30996 55.1754 5.53064 7.35767 2.86911 0.118705 -0.278628 0.562633 -3.15115 
201 2.87095 2.09325 -56.362 4.04253 6.0065 1.881 -3.16453 0.252643 0.341788 -2.79939 
202 2.84551 2.1252 -53.8874 0.165011 0.763297 -3.02646 -0.982111 -0.732816 -0.162366 -3.51266 
203 3.53831 4.21674 -55.1525 6.03166 6.27391 1.75937 0.302437 -1.21951 -0.0444719 -3.1433 
204 5.07312 2.13635 -55.1525 6.04997 7.03887 2.00316 0.446065 -0.52812 0.0805359 -3.14511 
205 1.29262 4.16451 -53.8815 0.861269 -0.348244 -3.67504 -0.40888 -0.573881 0.839002 -3.51412 
206 1.24176 4.17585 -51.3147 -1.28677 -1.91097 -0.373698 -0.214932 -0.880558 0.220151 -3.53903 
207 1.90264 6.26187 -52.5941 -0.917835 -1.45681 -0.573029 -0.18418 -1.16803 0.820001 -3.52792 
208 3.4607 4.22944 -52.6036 -0.748867 -0.92583 0.0954602 -0.677535 -0.496069 0.191366 -3.53019 
209 1.82403 6.27282 -50.0101 -1.6426 -2.32536 -0.262271 -0.200455 -1.28169 0.432901 -3.53673 
210 5.01221 2.17771 -52.6036 -1.34184 -0.34856 0.0546353 -0.502574 0.0191983 0.991505 -3.52952 
211 2.80522 2.14769 -51.32 -1.10365 -0.946836 -0.112581 -0.278074 -0.333 0.261785 -3.53414 
212 2.77226 2.17461 -48.7405 -1.96837 -1.83654 -0.545262 -0.291588 -0.223842 0.337839 -3.53087 
213 3.40036 4.25787 -50.02 -1.43128 -1.65375 -0.138775 -0.408355 -0.708881 0.286256 -3.53497 
214 4.971 2.23184 -50.02 -1.844 -1.27388 -0.11353 -0.296358 0.0208239 0.835905 -3.535 
215 1.18965 4.18042 -48.7355 -2.17775 -2.7555 -0.785591 -0.180369 -0.85024 0.283933 -3.5364 
216 1.13971 4.18649 -46.154 -2.63677 -3.19117 -0.973627 -0.165147 -0.833766 0.401945 -3.53604 
217 1.74857 6.27864 -47.4305 -2.10014 -2.83284 -0.673197 -0.213676 -1.24126 0.546176 -3.53588 
218 3.34499 4.28749 -47.4411 -1.89787 -2.20785 -0.561237 -0.30119 -0.639455 0.335774 -3.53414 
219 1.67463 6.29042 -44.8494 -2.46948 -3.19098 -0.861632 -0.200992 -1.24481 0.60448 -3.53533 
220 4.9348 2.28445 -47.4403 -2.32156 -1.78822 -0.540517 -0.212348 0.105643 0.864855 -3.53419 
221 2.74196 2.20189 -46.1593 -2.36415 -2.26785 -0.73846 -0.231973 -0.161617 0.392498 -3.53074 
222 2.71357 2.23052 -43.5775 -2.67638 -2.59077 -0.949913 -0.21614 -0.150226 0.412628 -3.53037 
223 3.29146 4.31966 -44.8604 -2.23359 -2.57308 -0.716523 -0.26082 -0.625387 0.371066 -3.53392 
224 4.90188 2.3375 -44.8595 -2.65668 -2.14342 -0.721774 -0.178313 0.143097 0.896042 -3.53392 
225 1.09052 4.19502 -43.572 -2.97532 -3.51147 -1.20161 -0.152927 -0.841668 0.427152 -3.53553 
226 1.04126 4.20425 -40.9908 -3.23491 -3.78672 -1.44286 -0.150955 -0.854689 0.433483 -3.53509 
227 1.60088 6.30389 -42.2683 -2.75167 -3.49745 -1.08879 -0.200595 -1.26256 0.619868 -3.53483 
228 3.23887 4.3533 -42.2794 -2.50695 -2.86963 -0.916544 -0.243989 -0.627747 0.388577 -3.5336 
229 1.52668 6.31805 -39.6884 -2.96222 -3.7647 -1.33271 -0.207688 -1.28164 0.623301 -3.53438 
230 4.87048 2.39143 -42.2785 -2.93988 -2.42589 -0.927463 -0.167776 0.15475 0.920973 -3.5336 
231 2.68572 2.25987 -40.9963 -2.93225 -2.85223 -1.18031 -0.213699 -0.148261 0.42636 -3.53006 
232 2.65797 2.28981 -38.4167 -3.14569 -3.06716 -1.42275 -0.218718 -0.147475 0.437668 -3.52981 
233 3.1865 4.38798 -39.6994 -2.72413 -3.10971 -1.1405 -0.238746 -0.632654 0.398811 -3.53333 
234 4.83968 2.44632 -39.6985 -3.17666 -2.64389 -1.15135 -0.16854 0.159463 0.942458 -3.53333 
235 0.991601 4.21374 -38.4113 -3.43423 -4.03117 -1.69404 -0.156204 -0.867012 0.434376 -3.53468 
236 0.94152 4.22344 -35.8343 -3.57504 -4.24161 -1.94986 -0.165821 -0.876877 0.428872 -3.53431 
237 1.45184 6.3327 -37.1107 -3.10428 -3.98833 -1.58499 -0.218543 -1.2974 0.618028 -3.53398 
238 3.13411 4.4236 -37.1215 -2.88553 -3.29341 -1.3746 -0.242246 -0.638969 0.400904 -3.53314 
239 1.37644 6.34786 -34.5362 -3.17888 -4.15731 -1.83199 -0.228912 -1.30942 0.599066 -3.53367 
240 4.80916 2.50218 -37.1205 -3.3641 -2.80036 -1.38414 -0.178878 0.159112 0.956169 -3.53314 
241 2.63021 2.3203 -35.8394 -3.3157 -3.23602 -1.66948 -0.230636 -0.149295 0.443326 -3.52963 
242 2.60243 2.35126 -33.2649 -3.43777 -3.35672 -1.91013 -0.249239 -0.157081 0.439482 -3.52955 
243 3.08163 4.46005 -34.5463 -2.98904 -3.41944 -1.60519 -0.253811 -0.649981 0.389622 -3.53306 
244 4.77887 2.55887 -34.5453 -3.49695 -2.89738 -1.61379 -0.19893 0.14873 0.957089 -3.53306 
245 0.891081 4.23336 -33.2603 -3.65684 -4.40911 -2.19892 -0.176445 -0.88455 0.412884 -3.53401 
246 0.840361 4.2434 -30.6896 -3.68718 -4.53095 -2.42764 -0.185079 -0.890887 0.385343 -3.5338 
247 1.30059 6.3634 -31.9652 -3.19612 -4.2697 -2.05748 -0.235755 -1.31878 0.564069 -3.53349 
248 3.02896 4.49703 -31.9745 -3.03949 -3.49508 -1.81961 -0.271756 -0.666681 0.3638 -3.53307 
249 1.22435 6.37897 -29.3977 -3.17394 -4.33523 -2.25042 -0.23805 -1.32611 0.516577 -3.53342 
250 4.74863 2.61614 -31.9733 -3.57771 -2.94439 -1.82809 -0.227139 0.125887 0.945115 -3.53306 
251 2.57455 2.38251 -30.6937 -3.51338 -3.43352 -2.13344 -0.27275 -0.17149 0.425923 -3.52954 
252 2.54643 2.41383 -28.1258 -3.55109 -3.47698 -2.33097 -0.298244 -0.190172 0.40598 -3.52957 
253 2.97592 4.53414 -29.4059 -3.04938 -3.53439 -2.00955 -0.2931 -0.686685 0.32792 -3.53312 
254 4.71816 2.67365 -29.4046 -3.61684 -2.95674 -2.0184 -0.260133 0.0933636 0.924705 -3.5331 
255 0.789398 4.25336 -28.1224 -3.68078 -4.61304 -2.62639 -0.189947 -0.896354 0.3494 -3.53368 
256 0.738205 4.26302 -25.5582 -3.65286 -4.66513 -2.79159 -0.190515 -0.901015 0.309676 -3.53362 
257 1.14774 6.39417 -26.8335 -3.12987 -4.36768 -2.40748 -0.235985 -1.33149 0.462695 -3.53342 
258 2.92236 4.57099 -26.8405 -3.03293 -3.55112 -2.17167 -0.314606 -0.706999 0.287963 -3.53318 
259 1.07078 6.40871 -24.272 -3.07716 -4.37942 -2.53095 -0.230071 -1.33516 0.407846 -3.53347 
260 4.68716 2.73111 -26.8391 -3.62678 -2.94911 -2.18074 -0.294289 0.0560656 0.900853 -3.53316 
261 2.51791 2.44501 -25.561 -3.56195 -3.49869 -2.49878 -0.322985 -0.210165 0.383611 -3.52962 
262 2.48892 2.47591 -22.9988 -3.55587 -3.50807 -2.63679 -0.345151 -0.229334 0.361653 -3.52967 
263 2.86817 4.6073 -24.2778 -3.00198 -3.55553 -2.30608 -0.333756 -0.725558 0.248439 -3.53323 
264 4.6554 2.78834 -24.2763 -3.61828 -2.93247 -2.31482 -0.326951 0.0182839 0.877115 -3.53321 
265 0.686787 4.27221 -22.9967 -3.61518 -4.69668 -2.92445 -0.187033 -0.904892 0.26999 -3.5336 
266 0.635152 4.28079 -20.4373 -3.57551 -4.71519 -3.02875 -0.180118 -0.908136 0.232664 -3.5336 
267 0.993477 6.42234 -21.7127 -3.02429 -4.37967 -2.62577 -0.220883 -1.33768 0.355536 -3.53353 
268 2.81329 4.64291 -21.7174 -2.96497 -3.55432 -2.41492 -0.349118 -0.741435 0.211834 -3.53327 
269 0.915864 6.43495 -19.1551 -2.976 -4.37452 -2.6974 -0.209036 -1.33965 0.307473 -3.53359 
270 4.62276 2.84519 -21.7158 -3.59936 -2.91388 -2.42277 -0.356659 -0.017271 0.855472 -3.53325 
271 2.45941 2.50645 -20.4388 -3.54033 -3.51157 -2.74743 -0.363867 -0.246595 0.341602 -3.52971 
272 2.42937 2.53657 -17.8807 -3.52037 -3.51309 -2.83429 -0.378959 -0.261654 0.323982 -3.52975 
273 2.75773 4.67773 -19.1589 -2.9272 -3.55148 -2.50133 -0.360215 -0.754531 0.179089 -3.5333 
274 4.58917 2.90162 -19.1573 -3.57549 -2.89736 -2.50794 -0.382864 -0.0493605 0.836743 -3.53328 
275 0.583311 4.2887 -17.8797 -3.5383 -4.72596 -3.10911 -0.17049 -0.911011 0.198732 -3.5336 
276 0.531279 4.29592 -15.3234 -3.50573 -4.73239 -3.17005 -0.158847 -0.913817 0.168383 -3.53361 
277 0.837953 6.44648 -16.599 -2.93435 -4.36767 -2.75085 -0.195165 -1.34165 0.264114 -3.53365 
278 2.7015 4.71172 -16.602 -2.89167 -3.5492 -2.56874 -0.367202 -0.765215 0.150222 -3.53332 
279 0.759757 6.45691 -14.0439 -2.89968 -4.36113 -2.79025 -0.179885 -1.34406 0.225207 -3.53369 
280 4.55462 2.95757 -16.6003 -3.55007 -2.88483 -2.574 -0.40558 -0.0777641 0.821028 -3.53331 
281 2.39879 2.56626 -15.324 -3.49915 -3.51479 -2.90127 -0.390667 -0.274686 0.308756 -3.52977 
282 2.36771 2.59552 -12.7685 -3.47838 -3.51762 -2.95203 -0.399442 -0.286078 0.295615 -3.52979 
283 2.64463 4.74487 -14.0462 -2.85972 -3.54843 -2.62047 -0.370582 -0.774029 0.124785 -3.53333 
284 4.51914 3.01303 -14.0446 -3.52504 -2.8769 -2.62441 -0.425126 -0.102833 0.808035 -3.53332 
285 0.479063 4.30242 -12.7682 -3.47843 -4.73656 -3.21553 -0.145801 -0.91681 0.141347 -3.53362 
286 0.426666 4.30822 -10.2137 -3.45603 -4.73959 -3.24878 -0.131869 -0.920127 0.117156 -3.53362 
287 0.681283 6.46624 -11.4897 -2.8712 -4.35583 -2.81884 -0.163734 -1.34707 0.190169 -3.53373 
288 2.58713 4.77719 -11.4914 -2.8316 -3.54944 -2.65947 -0.370993 -0.781496 0.102163 -3.53334 
289 0.602532 6.47448 -8.93596 -2.84752 -4.35203 -2.83909 -0.147132 -1.35059 0.158306 -3.53375 
290 4.48275 3.06801 -11.4897 -3.50132 -2.87337 -2.66219 -0.441955 -0.125156 0.79729 -3.53333 
291 2.33613 2.62435 -10.2138 -3.45884 -3.52181 -2.98972 -0.405816 -0.296242 0.284157 -3.5298 
292 2.30408 2.65276 -7.65973 -3.44067 -3.52723 -3.01692 -0.410321 -0.305501 0.27399 -3.52981 
293 2.52904 4.8087 -8.9372 -2.80691 -3.55208 -2.68822 -0.369076 -0.787992 0.0817293 -3.53334 
294 4.44546 3.1225 -8.93556 -3.47915 -2.87369 -2.68979 -0.456551 -0.145338 0.78827 -3.53334 
295 0.37409 4.31331 -7.65985 -3.43764 -4.74201 -3.27236 -0.117467 -0.92371 0.0952731 -3.53362 
296 0.321338 4.31772 -5.10638 -3.42212 -4.744 -3.28813 -0.102903 -0.927268 0.0751502 -3.53363 
297 0.523512 6.48165 -6.38269 -2.82711 -4.34964 -2.85278 -0.130347 -1.35426 0.128915 -3.53377 
298 2.47037 4.83941 -6.38352 -2.78487 -3.55606 -2.70868 -0.365381 -0.79369 0.0629358 -3.53334 
299 0.444248 6.48778 -3.82972 -2.80871 -4.34841 -2.86109 -0.113482 -1.35748 0.101316 -3.53378 
300 4.40731 3.1765 -6.3819 -3.45838 -2.87716 -2.70911 -0.469339 -0.163888 0.780473 -3.53334 
301 2.27155 2.68075 -5.1061 -3.42364 -3.53358 -3.03558 -0.413415 -0.314035 0.264769 -3.52982 
302 2.23856 2.70832 -2.55276 -3.40739 -3.54064 -3.04706 -0.415418 -0.32188 0.256209 -3.52982 
303 2.41116 4.86933 -3.83019 -2.7647 -3.56111 -2.72224 -0.360277 -0.798563 0.0453327 -3.53334 
304 4.36833 3.23 -3.82857 -3.43869 -2.88321 -2.72149 -0.480612 -0.181172 0.773457 -3.53335 
305 0.268425 4.32147 -2.5532 -3.40853 -4.74556 -3.29731 -0.0883598 -0.930302 0.0562332 -3.53363 
306 0.364785 6.49289 -1.27695 -2.79176 -4.3481 -2.8647 -0.0964698 -1.35957 0.0748587 -3.5338 
307 2.35145 4.89846 -1.27707 -2.74588 -3.56712 -2.72972 -0.353901 -0.802454 0.0285607 -3.53335 
308 4.32855 3.28299 -1.27545 -3.41984 -2.89151 -2.72778 -0.490469 -0.197425 0.766858 -3.53335 
309 2.43636 7.09067 -0.000769704 -2.22104 -3.36376 -2.40264 -0.317652 -1.20917 -0.188474 -3.53289 
310 0.434616 8.66784 -0.000972834 -2.25237 -4.02066 -2.4971 -0.10005 -1.74657 0.0828084 -3.53355 