ITEM: TIMESTEP
0
ITEM: NUMBER OF ATOMS
37664
ITEM: BOX BOUNDS ff ff ff
-100 100
-100 100
-156.15 156.15
ITEM: ATOMS id x y z v_peratom_sxx v_peratom_syy v_peratom_szz v_peratom_sxy v_peratom_sxz v_peratom_syz c_atomPE 
1 -0.00391587 -0.0020392 0.000953804 -5.17829 -5.16987 -9.53948 0.000842344 -0.0134229 -0.0369073 -3.51526 
2 -0.00411502 -0.00179347 2.55416 -5.17751 -5.16916 -9.53785 0.000127019 -0.0141553 -0.0362059 -3.51527 
3 -0.00432553 -0.00150718 5.10745 -5.17233 -5.16441 -9.5264 -0.000803115 -0.0135026 -0.035428 -3.51532 
4 -0.00454129 -0.0011859 7.66097 -5.16194 -5.15504 -9.50376 -0.00194149 -0.0110243 -0.0346786 -3.51542 
5 -0.00474694 -0.000843352 10.2149 -5.14541 -5.14018 -9.46795 -0.00320911 -0.00659839 -0.033934 -3.51558 
6 -0.00491984 -0.000498013 12.7693 -5.12161 -5.11869 -9.41639 -0.00446651 -0.000509008 -0.0330361 -3.51582 
7 -0.00503494 -0.000168221 15.3246 -5.08918 -5.08898 -9.34595 -0.00555618 0.00660257 -0.0317649 -3.51614 
8 -0.00507067 0.000132029 17.8809 -5.04623 -5.04886 -9.25274 -0.00635191 0.0139067 -0.0299447 -3.51657 
9 -0.00501369 0.000394951 20.4386 -4.99 -4.99526 -9.13205 -0.00679058 0.0205939 -0.0275277 -3.51712 
10 -0.00486112 0.000618314 22.9982 -4.9166 -4.92403 -8.97838 -0.00687834 0.0260432 -0.0246259 -3.51781 
11 -0.00461989 0.000803093 25.5599 -4.82075 -4.82975 -8.78602 -0.00667641 0.0299136 -0.0214891 -3.51867 
12 -0.00430403 0.000950662 28.1242 -4.69608 -4.70603 -8.55079 -0.00627665 0.0321546 -0.018446 -3.5197 
13 -0.0039308 0.00106063 30.6916 -4.53663 -4.54697 -8.27307 -0.00577515 0.0329557 -0.0158219 -3.52089 
14 -0.00351679 0.00113001 33.2622 -4.34069 -4.35097 -7.96155 -0.00525034 0.0326598 -0.0138592 -3.52219 
15 -0.00307475 0.00115353 35.8361 -4.11601 -4.12592 -7.63366 -0.00475061 0.031671 -0.0126716 -3.52346 
16 -0.00261194 0.00112441 38.4127 -3.87856 -3.88788 -7.30772 -0.00429257 0.0303705 -0.0122478 -3.52457 
17 -0.00212931 0.00103455 40.9919 -3.63992 -3.64849 -6.99016 -0.00386462 0.0290645 -0.0125056 -3.52546 
18 -0.00161924 0.000873289 43.5732 -3.40108 -3.40876 -6.6682 -0.00342498 0.0280395 -0.0133711 -3.52619 
19 -0.00106163 0.000624771 46.157 -3.13696 -3.1434 -6.30497 -0.00286886 0.0275689 -0.0147966 -3.52693 
20 -0.000430112 0.000264073 48.7436 -2.75394 -2.75749 -5.86491 -0.00160129 0.0271788 -0.0166819 -3.52781 
21 5.95933e-07 -4.11185e-08 51.3317 -1.9232 -1.92293 -4.92083 0.000128912 -0.00139185 0.000872052 -3.53204 
22 4.01304e-07 -1.42881e-06 53.9138 -0.851902 -0.851913 -8.9178 1.10458e-07 -2.68006e-05 -7.18306e-05 -3.48169 
23 8.71386e-07 -1.98378e-06 56.3885 1.68559 1.6856 1.87689 -1.52117e-05 2.37054e-05 -4.59833e-07 -2.55581 
24 -1.23087e-07 -1.12453e-06 -53.8876 -2.60697 -2.60699 -6.54961 -1.64463e-05 9.17145e-06 -3.24929e-05 -3.40183 
25 1.02659e-07 -1.55837e-06 -51.3239 -2.07917 -2.07925 -5.57945 -0.000385188 0.0009647 0.0021204 -3.52873 
26 -0.000250602 -0.000603147 -48.7462 -2.69407 -2.69248 -6.14773 0.00516032 -0.0158156 -0.0377017 -3.52639 
27 -0.000575089 -0.00144751 -46.1646 -3.021 -3.01791 -6.3478 0.00915158 -0.0135963 -0.0350694 -3.52678 
28 -0.000805172 -0.00208656 -43.5822 -3.30258 -3.29778 -6.60806 0.0102476 -0.00998074 -0.0329984 -3.52635 
29 -0.000952619 -0.00257152 -41.0007 -3.5582 -3.55133 -6.89619 0.0104777 -0.00631076 -0.0315212 -3.52574 
30 -0.00104469 -0.00293247 -38.4209 -3.80868 -3.79966 -7.20467 0.010148 -0.00289742 -0.0304327 -3.52491 
31 -0.00110921 -0.0031875 -35.8434 -4.05526 -4.04424 -7.5295 0.00939401 -6.34823e-05 -0.0296204 -3.52385 
32 -0.00117363 -0.00335064 -33.2685 -4.28854 -4.27593 -7.85958 0.00834796 0.00186027 -0.0290937 -3.52262 
33 -0.00126254 -0.0034359 -30.6968 -4.49543 -4.48183 -8.17736 0.00717107 0.00265814 -0.0289152 -3.52133 
34 -0.00139369 -0.00345777 -28.1282 -4.66741 -4.65347 -8.46574 0.00603057 0.00232808 -0.0291384 -3.52011 
35 -0.00157472 -0.00343005 -25.5628 -4.80348 -4.7898 -8.71421 0.00505753 0.00110641 -0.0297607 -3.51903 
36 -0.0018023 -0.00336456 -23.0001 -4.9077 -4.89473 -8.91982 0.00431446 -0.000604028 -0.0307085 -3.51811 
37 -0.00206402 -0.00327058 -20.4397 -4.98595 -4.97394 -9.08497 0.00378962 -0.00237861 -0.0318648 -3.51737 
38 -0.00234243 -0.00315535 -17.8812 -5.04403 -5.03304 -9.21468 0.00341922 -0.00391898 -0.0331102 -3.51678 
39 -0.00261977 -0.00302507 -15.3243 -5.08683 -5.07677 -9.31469 0.00312392 -0.00513971 -0.0343466 -3.51632 
40 -0.00288217 -0.00288509 -12.7685 -5.11816 -5.10886 -9.39043 0.00284058 -0.0061607 -0.0354916 -3.51597 
41 -0.00312198 -0.00273915 -10.2136 -5.14089 -5.13213 -9.4466 0.00253586 -0.00721521 -0.0364584 -3.5157 
42 -0.00333843 -0.00258769 -7.65945 -5.1571 -5.14866 -9.48707 0.00219944 -0.00851566 -0.0371472 -3.51551 
43 -0.00353667 -0.00242658 -5.10572 -5.16822 -5.1599 -9.5148 0.00182445 -0.0101281 -0.0374654 -3.51538 
44 -0.00372575 -0.00224729 -2.5523 -5.17516 -5.16681 -9.53188 0.00138787 -0.0118944 -0.0373706 -3.5153 
45 0.0922818 2.15814 1.27649 -4.05317 -5.13717 -3.83745 -0.0508177 -0.449752 -0.00069039 -3.52908 
46 0.0657569 2.1594 3.82965 -4.04837 -5.13687 -3.83126 -0.0396232 -0.449752 -0.0101192 -3.52909 
47 0.0392323 2.16035 6.38296 -4.04447 -5.13439 -3.8167 -0.028412 -0.448474 -0.0199575 -3.52911 
48 0.0127474 2.16098 8.93657 -4.04204 -5.12949 -3.79259 -0.016992 -0.445943 -0.0304431 -3.52914 
49 -0.0136546 2.16127 11.4907 -4.04189 -5.1217 -3.75733 -0.00521604 -0.442475 -0.0417508 -3.52918 
50 -0.0399336 2.16121 14.0454 -4.0448 -5.11027 -3.70891 0.00690348 -0.438574 -0.0540576 -3.52922 
51 -0.06606 2.16077 16.6012 -4.05115 -5.09392 -3.6447 0.0191337 -0.434765 -0.0676104 -3.52928 
52 -0.0920178 2.15995 19.1581 -4.06059 -5.07067 -3.56138 0.0310274 -0.431448 -0.0827417 -3.52934 
53 -0.117805 2.15877 21.7166 -4.07165 -5.03759 -3.45487 0.0419749 -0.428828 -0.0997945 -3.52942 
54 -0.143432 2.15723 24.277 -4.08121 -4.99039 -3.32054 0.0512799 -0.426903 -0.118908 -3.52953 
55 -0.168917 2.15537 26.8398 -4.08355 -4.92309 -3.15396 0.0582652 -0.425497 -0.139611 -3.52967 
56 -0.194279 2.15327 29.4055 -4.06937 -4.82797 -2.95266 0.0624462 -0.424309 -0.160264 -3.52986 
57 -0.219532 2.151 31.9742 -4.0255 -4.69692 -2.71868 0.0638163 -0.422948 -0.177748 -3.53012 
58 -0.244671 2.14866 34.5463 -3.93823 -4.52555 -2.46096 0.0631608 -0.420943 -0.188591 -3.53046 
59 -0.269666 2.14629 37.1216 -3.80211 -4.31927 -2.19368 0.0620199 -0.417755 -0.192537 -3.53087 
60 -0.294469 2.14381 39.6996 -3.62551 -4.09273 -1.92826 0.0619436 -0.412968 -0.19465 -3.53128 
61 -0.319053 2.14113 42.2798 -3.4204 -3.85665 -1.66495 0.063632 -0.406724 -0.201059 -3.53164 
62 -0.343449 2.13816 44.8621 -3.19342 -3.60785 -1.39222 0.0663236 -0.399607 -0.218426 -3.53193 
63 -0.367813 2.13511 47.4464 -2.91508 -3.29628 -1.10673 0.0667101 -0.393943 -0.23877 -3.53223 
64 -0.392512 2.13371 50.032 -2.4325 -2.80151 -0.49369 0.0610069 -0.413265 -0.205422 -3.53324 
65 -0.418483 2.1304 52.6263 -1.76577 -2.00553 -0.561416 0.0455007 -0.30895 -0.72995 -3.52457 
66 -0.44812 2.14653 55.1778 6.97659 7.73843 2.4309 0.0330141 -0.597322 1.77022 -3.02528 
67 0.649859 2.05055 -55.162 1.38944 0.842379 -0.678391 -0.188253 -0.0991979 1.20761 -3.26036 
68 0.633027 2.08274 -52.6122 -1.11196 -2.2187 -0.457713 -0.374489 -0.489289 -0.161411 -3.53566 
69 0.607028 2.08678 -50.0319 -2.00556 -2.55573 -0.875586 -0.169341 -0.42991 0.0761634 -3.53397 
70 0.581252 2.08803 -47.4533 -2.63779 -3.07244 -1.21 -0.124939 -0.403704 0.147139 -3.5329 
71 0.556397 2.09137 -44.8713 -3.05956 -3.44209 -1.36819 -0.103375 -0.397958 0.191732 -3.53225 
72 0.531745 2.09553 -42.2894 -3.35889 -3.72761 -1.5965 -0.0940719 -0.401663 0.203955 -3.53182 
73 0.506995 2.09995 -39.7087 -3.60293 -3.98352 -1.84671 -0.0923839 -0.407112 0.210337 -3.53141 
74 0.482047 2.10449 -37.13 -3.80554 -4.22139 -2.10991 -0.0964615 -0.412251 0.214188 -3.53097 
75 0.456891 2.10915 -34.5538 -3.96351 -4.43615 -2.37895 -0.104637 -0.416695 0.213208 -3.53055 
76 0.431556 2.11392 -31.9807 -4.0725 -4.618 -2.64176 -0.114583 -0.420716 0.204707 -3.53017 
77 0.406064 2.11874 -29.4109 -4.13577 -4.76173 -2.88469 -0.123765 -0.424558 0.188691 -3.52988 
78 0.380429 2.12353 -26.8443 -4.16369 -4.86947 -3.09773 -0.130315 -0.428198 0.167757 -3.52965 
79 0.354657 2.12816 -24.2806 -4.16817 -4.9476 -3.27668 -0.133396 -0.431482 0.144982 -3.52948 
80 0.328759 2.13257 -21.7194 -4.15915 -5.00334 -3.42212 -0.132985 -0.434287 0.12263 -3.52936 
81 0.30275 2.1367 -19.1603 -4.14368 -5.04297 -3.53741 -0.129505 -0.436586 0.101951 -3.52928 
82 0.27665 2.14053 -16.6028 -4.1263 -5.07129 -3.627 -0.123526 -0.438462 0.0834227 -3.52921 
83 0.250477 2.14403 -14.0467 -4.10964 -5.09175 -3.69537 -0.11561 -0.440084 0.0670633 -3.52917 
84 0.224245 2.1472 -11.4916 -4.09502 -5.10673 -3.74654 -0.106249 -0.441653 0.0526674 -3.52913 
85 0.197959 2.15004 -8.93721 -4.08288 -5.11778 -3.78389 -0.0958713 -0.443333 0.0399487 -3.52911 
86 0.17162 2.15254 -6.38337 -4.07308 -5.12592 -3.81008 -0.0848503 -0.445174 0.0285977 -3.52909 
87 0.145226 2.15472 -3.82989 -4.0652 -5.1317 -3.82704 -0.0735131 -0.447065 0.0182852 -3.52908 
88 0.118778 2.15658 -1.27665 -4.05871 -5.13543 -3.83599 -0.0621183 -0.448724 0.00865142 -3.52907 
89 0.215201 4.32479 -0.000784712 -3.39175 -4.7425 -3.30011 -0.0732759 -0.929045 0.0362218 -3.53365 
90 0.285147 6.49731 1.27497 -2.77279 -4.34461 -2.86324 -0.0785816 -1.35613 0.0484012 -3.53382 
91 2.20497 2.73569 -5.69708e-05 -3.38875 -3.54406 -3.05083 -0.416111 -0.328363 0.246063 -3.52984 
92 2.17129 2.76248 2.55306 -3.37442 -3.55333 -3.0496 -0.416018 -0.334386 0.238152 -3.52984 
93 2.29122 4.92709 1.2753 -2.72477 -3.57064 -2.73017 -0.345755 -0.802712 0.0116766 -3.53336 
94 4.28792 3.33571 1.27703 -3.39941 -2.89797 -2.72672 -0.498195 -0.21206 0.758691 -3.53336 
95 0.162258 4.32735 2.55215 -3.38284 -4.74383 -3.29734 -0.058926 -0.929306 0.017902 -3.53366 
96 0.109311 4.32924 5.10517 -3.37664 -4.745 -3.28825 -0.044253 -0.928103 -0.000775857 -3.53367 
97 0.205747 6.50048 3.82764 -2.76311 -4.34723 -2.85789 -0.0609621 -1.35524 0.02224 -3.53383 
98 2.23084 4.95466 3.82833 -2.71074 -3.57988 -2.72604 -0.336262 -0.804377 -0.00441407 -3.53336 
99 0.126417 6.50261 6.38046 -2.75858 -4.35134 -2.84765 -0.0426641 -1.35328 -0.00453959 -3.53384 
100 4.24679 3.38762 3.83009 -3.38362 -2.91176 -2.72151 -0.504568 -0.226662 0.752214 -3.53336 
101 2.13726 2.7888 5.10628 -3.361 -3.56395 -3.04167 -0.414411 -0.339792 0.230238 -3.52984 
102 2.10291 2.81463 7.65975 -3.34903 -3.57615 -3.02623 -0.41083 -0.344711 0.222138 -3.52983 
103 2.17014 4.98137 6.38152 -2.69982 -3.59088 -2.7155 -0.324703 -0.80528 -0.0207301 -3.53336 
104 4.20498 3.43891 6.38333 -3.36962 -2.92844 -2.71007 -0.508648 -0.240998 0.745481 -3.53336 
105 0.0564276 4.33046 7.65841 -3.37446 -4.74611 -3.2722 -0.0290254 -0.925624 -0.0201979 -3.53368 
106 0.00367383 4.33098 10.212 -3.37781 -4.74717 -3.24826 -0.0131294 -0.922374 -0.0407319 -3.53369 
107 0.0472449 6.50368 8.93355 -2.76099 -4.35716 -2.83204 -0.0236971 -1.35086 -0.032456 -3.53383 
108 2.10918 5.00719 8.93502 -2.69322 -3.60373 -2.69774 -0.310786 -0.80582 -0.037712 -3.53336 
109 -0.0317022 6.50367 11.4871 -2.77175 -4.36483 -2.81033 -0.00425378 -1.34872 -0.06208 -3.53382 
110 4.16254 3.48955 8.93688 -3.35811 -2.94823 -2.69159 -0.509991 -0.255429 0.738291 -3.53336 
111 2.06828 2.83994 10.2136 -3.33926 -3.58999 -3.00203 -0.404812 -0.34945 0.213617 -3.52983 
112 2.03342 2.86471 12.768 -3.33251 -3.60528 -2.96744 -0.396 -0.354497 0.204341 -3.52982 
113 2.04803 5.03209 11.489 -2.69218 -3.61831 -2.67165 -0.294363 -0.806592 -0.0559367 -3.53336 
114 4.11949 3.53952 11.4909 -3.34986 -2.97123 -2.66487 -0.508201 -0.270464 0.73037 -3.53336 
115 -0.0488953 4.33079 12.7662 -3.38801 -4.74799 -3.21517 0.0033478 -0.918987 -0.062789 -3.5337 
116 -0.101243 4.32986 15.3211 -3.4059 -4.74803 -3.17115 0.0201081 -0.916016 -0.0868721 -3.5337 
117 -0.110382 6.50256 14.0412 -2.79166 -4.37428 -2.78138 0.0153275 -1.34746 -0.0940736 -3.53379 
118 1.98671 5.05604 14.0436 -2.69765 -3.63427 -2.63579 -0.27544 -0.808286 -0.0761229 -3.53336 
119 -0.188775 6.50032 16.5961 -2.82093 -4.38509 -2.74344 0.034631 -1.34737 -0.129195 -3.53375 
120 4.07587 3.58878 14.0455 -3.34551 -2.99738 -2.62836 -0.502951 -0.286756 0.721313 -3.53336 
121 1.99834 2.88891 15.3233 -3.32938 -3.62145 -2.92037 -0.384186 -0.360468 0.193852 -3.5298 
122 1.96306 2.91251 17.8795 -3.33004 -3.63752 -2.85824 -0.369294 -0.36802 0.181576 -3.52978 
123 1.92524 5.07901 16.5991 -2.71017 -3.65094 -2.58827 -0.254121 -0.811576 -0.0990971 -3.53335 
124 4.03168 3.63729 16.601 -3.34543 -3.02642 -2.58005 -0.493979 -0.305062 0.710561 -3.53335 
125 -0.153352 4.32819 17.8771 -3.43164 -4.74625 -3.11377 0.0366901 -0.913787 -0.113574 -3.5337 
126 -0.20522 4.32579 20.4343 -3.46465 -4.74089 -3.03974 0.0525336 -0.912348 -0.143497 -3.53369 
127 -0.266878 6.49697 19.1521 -2.85927 -4.39638 -2.69398 0.0532328 -1.34844 -0.168244 -3.5337 
128 1.86363 5.10099 19.1557 -2.72974 -3.6673 -2.52664 -0.23055 -0.817046 -0.125719 -3.53333 
129 -0.344696 6.4925 21.7094 -2.9058 -4.40642 -2.62943 0.0707496 -1.35031 -0.21192 -3.53363 
130 3.98692 3.68502 19.1576 -3.34955 -3.05775 -2.51751 -0.481068 -0.326182 0.697402 -3.53334 
131 1.92758 2.93551 20.4371 -3.33392 -3.65195 -2.77792 -0.351338 -0.377763 0.166888 -3.52975 
132 1.89191 2.95789 22.9964 -3.3394 -3.66229 -2.6758 -0.330428 -0.390128 0.149236 -3.52972 
133 1.80187 5.12193 21.7137 -2.75572 -3.68173 -2.44784 -0.204892 -0.825147 -0.156736 -3.5333 
134 3.9416 3.73194 21.7156 -3.35715 -3.09022 -2.43783 -0.464058 -0.350854 0.681038 -3.53331 
135 -0.256856 4.32266 22.9932 -3.50325 -4.72907 -2.94485 0.0670284 -0.911501 -0.177047 -3.53369 
136 -0.308275 4.31887 25.5541 -3.5441 -4.70626 -2.82418 0.0795329 -0.910898 -0.21404 -3.53369 
137 -0.422231 6.48696 24.2683 -2.95878 -4.41225 -2.54509 0.0868484 -1.35235 -0.260507 -3.53356 
138 1.73996 5.14186 24.2735 -2.78647 -3.69169 -2.34834 -0.177406 -0.836141 -0.192522 -3.53327 
139 -0.499485 6.48042 26.8293 -3.01485 -4.40888 -2.43521 0.101199 -1.35385 -0.31333 -3.5335 
140 3.8957 3.77803 24.2754 -3.36654 -3.12179 -2.33777 -0.442967 -0.379563 0.660751 -3.53328 
141 1.85603 2.97967 25.5578 -3.34321 -3.66473 -2.54801 -0.306864 -0.405164 0.128426 -3.52967 
142 1.81999 3.00088 28.1217 -3.33946 -3.65327 -2.3912 -0.28136 -0.422146 0.105123 -3.52962 
143 1.6779 5.1608 26.8355 -2.81872 -3.69319 -2.22443 -0.148636 -0.849949 -0.232585 -3.53322 
144 3.84928 3.82328 26.8373 -3.37438 -3.14878 -2.21389 -0.418221 -0.412149 0.636249 -3.53323 
145 -0.359495 4.31449 28.1175 -3.58097 -4.66565 -2.67279 0.0893868 -0.910151 -0.253081 -3.53372 
146 -0.410533 4.30968 30.6838 -3.60315 -4.59773 -2.48733 0.0959967 -0.908884 -0.290864 -3.5338 
147 -0.576457 6.47305 29.3927 -3.06763 -4.38837 -2.29362 0.113361 -1.35413 -0.367956 -3.53347 
148 1.61573 5.17886 29.4001 -2.84631 -3.68012 -2.07295 -0.119734 -0.865777 -0.274808 -3.53317 
149 -0.653147 6.46512 31.9592 -3.10578 -4.33892 -2.11554 0.122654 -1.35273 -0.419447 -3.53349 
150 3.8024 3.86776 29.4017 -3.37468 -3.16496 -2.06309 -0.391015 -0.44713 0.608298 -3.53317 
151 1.78383 3.02164 30.6885 -3.31852 -3.61917 -2.20381 -0.255367 -0.439023 0.0815781 -3.52957 
152 1.74771 3.04211 33.2586 -3.26688 -3.55128 -1.98798 -0.231239 -0.452156 0.0620222 -3.52955 
153 1.55353 5.19626 31.9677 -2.85858 -3.64348 -1.89234 -0.0927904 -0.881417 -0.314582 -3.53311 
154 3.75526 3.91159 31.9692 -3.35735 -3.16033 -1.88348 -0.36362 -0.480857 0.579575 -3.53311 
155 -0.461389 4.30466 33.2534 -3.59462 -4.49118 -2.26896 0.0991164 -0.906592 -0.322219 -3.53396 
156 -0.512028 4.29963 35.8265 -3.53747 -4.33709 -2.02632 0.0993169 -0.902351 -0.342588 -3.53423 
157 -0.729537 6.45701 34.5292 -3.11158 -4.24506 -1.90127 0.128248 -1.34914 -0.460734 -3.53362 
158 1.49147 5.21336 34.5386 -2.83924 -3.57125 -1.68434 -0.0707279 -0.892595 -0.34488 -3.53308 
159 -0.805561 6.44911 37.1028 -3.06364 -4.09218 -1.66094 0.129835 -1.34206 -0.486124 -3.53388 
160 3.70816 3.95503 34.5399 -3.30713 -3.12095 -1.67622 -0.339195 -0.507433 0.555074 -3.53307 
161 1.71179 3.06249 35.8321 -3.17041 -3.43959 -1.75087 -0.211623 -0.457613 0.0510063 -3.52961 
162 1.67622 3.08289 38.4086 -3.02347 -3.28232 -1.50326 -0.197618 -0.454956 0.0481812 -3.52977 
163 1.42978 5.23055 37.1128 -2.76923 -3.45068 -1.45581 -0.0562014 -0.894007 -0.35973 -3.53313 
164 3.66146 3.99834 37.1141 -3.2058 -3.03251 -1.44792 -0.320518 -0.521403 0.539983 -3.53313 
165 -0.562366 4.29465 38.4027 -3.42273 -4.13783 -1.7746 0.0982676 -0.894961 -0.353474 -3.53458 
166 -0.61231 4.28957 40.9816 -3.25791 -3.90946 -1.52616 0.0981904 -0.883881 -0.363851 -3.53492 
167 -0.881088 6.4415 39.6796 -2.95025 -3.87989 -1.41446 0.128666 -1.32973 -0.498689 -3.53425 
168 1.36871 5.24801 39.6902 -2.63797 -3.27712 -1.21857 -0.0495823 -0.884356 -0.362365 -3.5333 
169 -0.95601 6.43389 42.2588 -2.7798 -3.6283 -1.17954 0.12744 -1.31212 -0.511196 -3.53461 
170 3.61542 4.04169 39.6913 -3.04309 -2.88998 -1.21095 -0.307981 -0.523947 0.532934 -3.53329 
171 1.64102 3.10324 40.9876 -2.8344 -3.08838 -1.25284 -0.187542 -0.449411 0.0455672 -3.53 
172 1.60609 3.12338 43.5688 -2.61322 -2.86586 -0.997267 -0.178872 -0.447517 0.0348567 -3.53027 
173 1.3083 5.26559 42.2698 -2.45191 -3.05972 -0.982734 -0.0480543 -0.87013 -0.367192 -3.53355 
174 3.56997 4.08498 42.2709 -2.82641 -2.70182 -0.977044 -0.299398 -0.524861 0.523076 -3.53354 
175 -0.661842 4.28417 43.5623 -3.05424 -3.66241 -1.28048 0.100237 -0.869948 -0.382113 -3.53523 
176 -0.711127 4.27844 46.1446 -2.82378 -3.39473 -1.01761 0.103596 -0.855319 -0.413699 -3.53549 
177 -1.03039 6.42607 44.8394 -2.55937 -3.34446 -0.962871 0.127529 -1.29154 -0.528905 -3.53496 
178 1.24842 5.28314 44.851 -2.21831 -2.8033 -0.749906 -0.0498814 -0.859803 -0.385726 -3.53386 
179 -1.10458 6.41838 47.4203 -2.29599 -3.01705 -0.776401 0.129765 -1.27252 -0.542044 -3.53528 
180 3.52493 4.12813 44.852 -2.56111 -2.47543 -0.752026 -0.292115 -0.533051 0.501827 -3.53383 
181 1.57124 3.14329 46.1516 -2.36458 -2.61741 -0.71908 -0.171229 -0.456866 0.00765924 -3.53054 
182 1.53633 3.16338 48.7364 -2.08956 -2.36152 -0.347749 -0.183223 -0.479895 -0.0323175 -3.53015 
183 1.1886 5.30066 47.4331 -1.94357 -2.50521 -0.518792 -0.0633749 -0.86614 -0.430863 -3.53412 
184 3.48002 4.17121 47.4338 -2.24097 -2.22056 -0.543972 -0.28617 -0.559271 0.457732 -3.53404 
185 -0.760666 4.2734 48.7285 -2.60301 -3.07462 -0.669957 0.0971275 -0.846665 -0.419523 -3.53516 
186 -0.811621 4.26877 51.3169 -1.98842 -2.35107 0.311832 0.0838917 -0.841936 -0.653072 -3.53805 
187 -1.17889 6.41384 50.0002 -2.0573 -2.54162 -0.333477 0.0867523 -1.27782 -0.619783 -3.53573 
188 1.12775 5.31799 50.0156 -1.56925 -2.07903 -0.0212364 -0.110549 -0.945568 -0.597557 -3.53484 
189 -1.25707 6.40546 52.5877 -1.61241 -2.48693 0.643227 0.17579 -1.31624 -0.613065 -3.53282 
190 3.43505 4.21346 50.0156 -1.75905 -1.85302 -0.0391706 -0.309459 -0.668744 0.311594 -3.5349 
191 1.50027 3.18358 51.3264 -1.43163 -1.70133 0.657901 -0.17263 -0.548529 -0.133056 -3.53273 
192 1.46587 3.20964 53.9052 0.0267059 0.953996 -0.795864 0.566309 -0.560978 0.138979 -3.37565 
193 1.06597 5.33731 52.6041 -1.24919 -1.89858 0.441477 -0.236979 -0.801319 -0.4108 -3.52779 
194 3.38747 4.26008 52.6041 -1.41016 -1.71361 0.389815 -0.390663 -0.639431 0.587359 -3.52746 
195 -0.866323 4.2769 53.8949 -0.0508685 -0.206126 -1.18047 0.0793751 -1.26166 1.02744 -3.38132 
196 1.3298 4.1174 -56.3442 5.06942 2.90559 1.60242 -1.25473 -0.273892 0.110263 -2.79034 
197 -1.33605 6.40133 55.1665 4.18006 2.79745 1.28996 0.319922 -1.5232 0.197874 -3.26107 
198 1.00488 5.36129 55.1754 5.64208 6.63186 2.70774 0.369859 -0.636459 -0.0326223 -3.15047 
199 1.98371 6.26223 -55.1334 6.93988 9.11552 2.92914 0.134188 -0.847907 -0.525662 -3.02309 
200 3.34328 4.30996 55.1754 5.53064 7.35767 2.86911 0.118705 -0.278628 0.562633 -3.15115 
201 2.87095 2.09325 -56.362 4.04253 6.0065 1.881 -3.16453 0.252643 0.341788 -2.79939 
202 2.84551 2.1252 -53.8874 0.165004 0.76329 -3.02649 -0.98211 -0.732814 -0.162365 -3.51266 
203 3.53831 4.21674 -55.1525 6.03166 6.27391 1.75936 0.302437 -1.21951 -0.044474 -3.1433 
204 5.07312 2.13635 -55.1525 6.04997 7.03886 2.00315 0.446065 -0.528121 0.080535 -3.14511 
205 1.29262 4.16451 -53.8815 0.861257 -0.348261 -3.67507 -0.40888 -0.573878 0.839001 -3.51412 
206 1.24176 4.17585 -51.3147 -1.28699 -1.91112 -0.37628 -0.214921 -0.880484 0.220621 -3.53903 
207 1.90264 6.26187 -52.5941 -0.917893 -1.45676 -0.572991 -0.184163 -1.16801 0.820118 -3.52792 
208 3.4607 4.22944 -52.6036 -0.748888 -0.925837 0.0954502 -0.677506 -0.496043 0.191391 -3.53019 
209 1.82403 6.27282 -50.0101 -1.64506 -2.32853 -0.267842 -0.199703 -1.2816 0.428726 -3.53672 
210 5.01221 2.17771 -52.6036 -1.34185 -0.348571 0.0546195 -0.502556 0.0192204 0.991513 -3.52952 
211 2.80522 2.14769 -51.32 -1.10367 -0.946865 -0.11283 -0.278135 -0.333074 0.262135 -3.53414 
212 2.77225 2.17449 -48.7405 -1.96999 -1.838 -0.546551 -0.291007 -0.226766 0.33268 -3.53088 
213 3.40036 4.25787 -50.02 -1.43192 -1.65424 -0.140259 -0.408593 -0.7097 0.283871 -3.53497 
214 4.971 2.23184 -50.02 -1.84397 -1.27427 -0.113994 -0.296516 0.0199358 0.833978 -3.53501 
215 1.18964 4.18027 -48.7356 -2.17889 -2.75897 -0.7912 -0.17984 -0.850215 0.275902 -3.5364 
216 1.13967 4.18607 -46.1541 -2.63762 -3.19329 -0.977407 -0.162787 -0.833515 0.395967 -3.53604 
217 1.74857 6.27835 -47.4306 -2.10112 -2.83571 -0.679718 -0.212604 -1.24116 0.53994 -3.53588 
218 3.345 4.28725 -47.4411 -1.89908 -2.21016 -0.563857 -0.300424 -0.640749 0.33151 -3.53414 
219 1.6746 6.28991 -44.8496 -2.47051 -3.1928 -0.865979 -0.198716 -1.24443 0.59943 -3.53534 
220 4.93479 2.28427 -47.4403 -2.32277 -1.78986 -0.541609 -0.211433 0.10357 0.861843 -3.5342 
221 2.74191 2.20156 -46.1594 -2.36509 -2.27003 -0.739283 -0.230151 -0.163532 0.388449 -3.53074 
222 2.71347 2.23002 -43.5776 -2.6775 -2.59335 -0.949827 -0.213421 -0.151658 0.409158 -3.53037 
223 3.29144 4.31926 -44.8605 -2.23461 -2.57535 -0.71846 -0.259086 -0.626137 0.367368 -3.53392 
224 4.90183 2.33718 -44.8595 -2.65773 -2.14517 -0.722613 -0.17647 0.141488 0.893518 -3.53393 
225 1.09046 4.1944 -43.5722 -2.97662 -3.51324 -1.20439 -0.149506 -0.841294 0.422021 -3.53553 
226 1.04117 4.20349 -40.9911 -3.23676 -3.78845 -1.44503 -0.146873 -0.854371 0.428888 -3.53509 
227 1.60083 6.30322 -42.2685 -2.75323 -3.49907 -1.09211 -0.1976 -1.26216 0.615527 -3.53484 
228 3.23882 4.35276 -42.2796 -2.50821 -2.87213 -0.917617 -0.241536 -0.62823 0.385352 -3.5336 
229 1.5266 6.31726 -39.6887 -2.96429 -3.76633 -1.33543 -0.204251 -1.28139 0.61944 -3.53439 
230 4.8704 2.391 -42.2786 -2.94106 -2.42801 -0.927714 -0.165252 0.153489 0.91887 -3.5336 
231 2.6856 2.25926 -40.9965 -2.93371 -2.8552 -1.17939 -0.210347 -0.149516 0.423285 -3.53006 
232 2.65782 2.28912 -38.4169 -3.14746 -3.07043 -1.42114 -0.214909 -0.14875 0.434879 -3.52981 
233 3.18642 4.38735 -39.6996 -2.72574 -3.11247 -1.1408 -0.23578 -0.633129 0.395922 -3.53333 
234 4.83957 2.44582 -39.6987 -3.17807 -2.64639 -1.15101 -0.165523 0.158363 0.940718 -3.53333 
235 0.99149 4.21288 -38.4116 -3.43658 -4.03289 -1.69572 -0.15171 -0.866891 0.430174 -3.53468 
236 0.941382 4.22251 -35.8346 -3.57774 -4.24325 -1.95107 -0.161102 -0.877066 0.42498 -3.53431 
237 1.45173 6.33183 -37.1111 -3.1067 -3.98999 -1.58723 -0.214863 -1.29743 0.61452 -3.53398 
238 3.13401 4.42291 -37.1217 -2.88743 -3.29635 -1.37423 -0.238931 -0.639624 0.398239 -3.53315 
239 1.37628 6.34695 -34.5366 -3.18141 -4.15895 -1.83374 -0.225145 -1.30981 0.595842 -3.53367 
240 4.80903 2.50165 -37.1207 -3.36571 -2.80317 -1.38328 -0.175521 0.158006 0.954727 -3.53315 
241 2.63004 2.31956 -35.8395 -3.31771 -3.23946 -1.66728 -0.226517 -0.15075 0.440732 -3.52964 
242 2.60224 2.35051 -33.2651 -3.43989 -3.36017 -1.90744 -0.244952 -0.158841 0.437003 -3.52955 
243 3.08149 4.45933 -34.5466 -2.99109 -3.42246 -1.60424 -0.250295 -0.650941 0.387089 -3.53306 
244 4.77871 2.55834 -34.5455 -3.49866 -2.90039 -1.61249 -0.195375 0.147479 0.955874 -3.53306 
245 0.890907 4.2324 -33.2606 -3.65966 -4.41058 -2.19963 -0.171664 -0.885127 0.40925 -3.53401 
246 0.840138 4.24243 -30.69 -3.68981 -4.53214 -2.42785 -0.180377 -0.891879 0.38194 -3.5338 
247 1.30036 6.36246 -31.9656 -3.19844 -4.27122 -2.0587 -0.232027 -1.31954 0.561094 -3.53349 
248 3.02877 4.49632 -31.9747 -3.04148 -3.49804 -1.81815 -0.268179 -0.668012 0.361327 -3.53307 
249 1.22403 6.37804 -29.3981 -3.17567 -4.33648 -2.25106 -0.234459 -1.32721 0.513841 -3.53342 
250 4.74844 2.61563 -31.9735 -3.57938 -2.94745 -1.8264 -0.223521 0.12439 0.944048 -3.53306 
251 2.57433 2.38178 -30.6939 -3.51543 -3.43681 -2.13035 -0.268439 -0.173637 0.423484 -3.52954 
252 2.54616 2.41313 -28.126 -3.55288 -3.47989 -2.32759 -0.294047 -0.192728 0.403519 -3.52958 
253 2.97567 4.53345 -29.4062 -3.05106 -3.53711 -2.00767 -0.289593 -0.688389 0.325459 -3.53312 
254 4.71793 2.67318 -29.4049 -3.6183 -2.95966 -2.01639 -0.256582 0.0915616 0.923706 -3.53311 
255 0.789114 4.25241 -28.1227 -3.68289 -4.61382 -2.6261 -0.185447 -0.89773 0.346215 -3.53368 
256 0.737848 4.26211 -25.5585 -3.65408 -4.66536 -2.79087 -0.186313 -0.902679 0.306712 -3.53362 
257 1.14733 6.39328 -26.8339 -3.13064 -4.36848 -2.40755 -0.232601 -1.33282 0.460207 -3.53342 
258 2.92204 4.57034 -26.8408 -3.034 -3.5534 -2.16945 -0.311287 -0.709009 0.285492 -3.53318 
259 1.07027 6.40786 -24.2724 -3.07661 -4.37961 -2.53049 -0.226942 -1.33658 0.405627 -3.53347 
260 4.68688 2.7307 -26.8393 -3.62782 -2.95166 -2.17848 -0.290922 0.0539537 0.899845 -3.53316 
261 2.51761 2.44436 -25.5612 -3.56325 -3.501 -2.49524 -0.31903 -0.213088 0.38109 -3.52963 
262 2.48857 2.47533 -22.999 -3.55649 -3.50955 -2.63323 -0.341546 -0.232519 0.359061 -3.52968 
263 2.86777 4.60672 -24.2781 -3.00218 -3.55716 -2.30363 -0.330724 -0.727747 0.24597 -3.53323 
264 4.65508 2.788 -24.2765 -3.6187 -2.93439 -2.31239 -0.323869 0.0159141 0.876038 -3.53321 
265 0.686351 4.27135 -22.997 -3.61521 -4.69625 -2.9234 -0.183201 -0.906694 0.267255 -3.5336 
266 0.634638 4.28001 -20.4376 -3.57411 -4.714 -3.02749 -0.1767 -0.90988 0.230172 -3.5336 
267 0.992866 6.42157 -21.7131 -3.02216 -4.37908 -2.62487 -0.218036 -1.33897 0.353613 -3.53353 
268 2.81282 4.64241 -21.7177 -2.96406 -3.5551 -2.41236 -0.346451 -0.743624 0.209407 -3.53327 
269 0.915163 6.43427 -19.1556 -2.97217 -4.37301 -2.69618 -0.20648 -1.3406 0.305866 -3.5336 
270 4.62238 2.84493 -21.7161 -3.59901 -2.91492 -2.42026 -0.353939 -0.0197944 0.854281 -3.53325 
271 2.459 2.50594 -20.439 -3.54011 -3.51203 -2.74398 -0.360699 -0.249883 0.338956 -3.52972 
272 2.42891 2.53615 -17.8809 -3.51923 -3.51243 -2.83108 -0.376282 -0.264853 0.32132 -3.52975 
273 2.75719 4.67732 -19.1593 -2.92504 -3.55128 -2.49877 -0.357961 -0.756515 0.176765 -3.5333 
274 4.58874 2.90144 -19.1576 -3.57426 -2.89733 -2.50543 -0.380557 -0.0518936 0.835415 -3.53329 
275 0.582729 4.28802 -17.88 -3.53538 -4.72395 -3.10778 -0.167508 -0.912475 0.19649 -3.53361 
276 0.530649 4.29535 -15.3237 -3.50135 -4.72957 -3.16879 -0.1563 -0.914782 0.166382 -3.53362 
277 0.837186 6.44591 -16.5995 -2.92886 -4.36518 -2.74945 -0.192898 -1.34203 0.262831 -3.53366 
278 2.70091 4.7114 -16.6023 -2.88823 -3.54793 -2.56628 -0.365381 -0.766783 0.148071 -3.53332 
279 0.758961 6.45646 -14.0444 -2.89274 -4.35768 -2.78881 -0.177893 -1.34368 0.224234 -3.53371 
280 4.55416 2.95747 -16.6007 -3.54793 -2.88362 -2.57156 -0.403704 -0.0801424 0.819559 -3.53331 
281 2.3983 2.56594 -15.3243 -3.49707 -3.51297 -2.89838 -0.388505 -0.277593 0.306127 -3.52978 
282 2.3672 2.5953 -12.7688 -3.47547 -3.5147 -2.94952 -0.39778 -0.288509 0.293067 -3.5298 
283 2.64401 4.74465 -14.0466 -2.85511 -3.54611 -2.61818 -0.369178 -0.774998 0.122872 -3.53334 
284 4.51865 3.01302 -14.0449 -3.52206 -2.8745 -2.62211 -0.423665 -0.104894 0.806436 -3.53333 
285 0.478414 4.30198 -12.7685 -3.4728 -4.73299 -3.21443 -0.143671 -0.917089 0.139559 -3.53363 
286 0.426035 4.30791 -10.2141 -3.44953 -4.73541 -3.2479 -0.130124 -0.919593 0.115528 -3.53363 
287 0.6805 6.46592 -11.4902 -2.86324 -4.35154 -2.81748 -0.162 -1.3458 0.189466 -3.53374 
288 2.58652 4.77708 -11.4918 -2.82606 -3.54619 -2.65741 -0.36996 -0.781735 0.100534 -3.53335 
289 0.601813 6.4743 -8.93654 -2.8391 -4.34711 -2.83788 -0.145638 -1.34841 0.157809 -3.53377 
290 4.48226 3.06807 -11.4901 -3.49765 -2.8699 -2.66005 -0.440861 -0.126762 0.795588 -3.53334 
291 2.33564 2.62423 -10.2141 -3.4553 -3.51798 -2.98759 -0.404606 -0.298057 0.281729 -3.52981 
292 2.30362 2.65273 -7.66007 -3.43676 -3.52276 -3.01513 -0.409482 -0.306625 0.271698 -3.52982 
293 2.52847 4.80869 -8.93767 -2.8008 -3.54812 -2.68641 -0.368343 -0.787446 0.0804019 -3.53335 
294 4.445 3.12262 -8.93598 -3.47505 -2.86938 -2.68782 -0.455745 -0.146399 0.786499 -3.53335 
295 0.373516 4.31314 -7.6603 -3.43076 -4.73743 -3.27169 -0.116066 -0.922322 0.0937348 -3.53364 
296 0.320862 4.3177 -5.10689 -3.41544 -4.73928 -3.28763 -0.101805 -0.925087 0.073619 -3.53364 
297 0.522907 6.48161 -6.38332 -2.81889 -4.34438 -2.85175 -0.129083 -1.35125 0.128541 -3.53379 
298 2.46989 4.83949 -6.38405 -2.77865 -3.55169 -2.70708 -0.364856 -0.792394 0.0618906 -3.53336 
299 0.443798 6.48788 -3.8304 -2.80137 -4.34317 -2.86024 -0.112444 -1.35385 0.100975 -3.5338 
300 4.40691 3.17667 -6.38236 -3.45416 -2.87234 -2.70728 -0.468723 -0.164375 0.778671 -3.53335 
301 2.27116 2.68081 -5.10649 -3.41971 -3.5288 -3.03407 -0.412849 -0.314471 0.262607 -3.52983 
302 2.23827 2.70846 -2.5532 -3.4038 -3.53593 -3.04572 -0.415018 -0.321713 0.254146 -3.52983 
303 2.4108 4.86949 -3.83077 -2.75889 -3.55667 -2.72079 -0.35987 -0.796646 0.044515 -3.53336 
304 4.36802 3.23022 -3.82907 -3.43473 -2.87827 -2.71977 -0.480083 -0.181122 0.771661 -3.53336 
305 0.268083 4.32157 -2.55376 -3.40263 -4.74098 -3.2969 -0.0875295 -0.927494 0.0546271 -3.53365 
306 0.364525 6.49311 -1.27767 -2.78592 -4.34327 -2.86399 -0.0956699 -1.35562 0.0744616 -3.53381 
307 2.35122 4.8987 -1.27769 -2.74097 -3.56296 -2.72838 -0.353532 -0.800125 0.027885 -3.53336 
308 4.32834 3.28324 -1.27599 -3.41651 -2.88684 -2.72612 -0.489939 -0.196945 0.765098 -3.53336 
309 2.43623 7.09098 -0.00153127 -2.21617 -3.36016 -2.40114 -0.317191 -1.2056 -0.187829 -3.53291 
310 0.434483 8.66815 -0.00180104 -2.24783 -4.0161 -2.49642 -0.0993206 -1.74207 0.0832207 -3.53357 