ITEM: TIMESTEP
934
ITEM: NUMBER OF ATOMS
37664
ITEM: BOX BOUNDS ff ff ff
-100 100
-100 100
-156.15 156.15
ITEM: ATOMS id x y z v_peratom_sxx v_peratom_syy v_peratom_szz v_peratom_sxy v_peratom_sxz v_peratom_syz c_atomPE 
1 -0.00369596 -0.00218698 0.00106367 -5.17905 -5.17179 -9.53876 0.000211441 -0.011438 -0.0281219 -3.51527 
2 -0.00399433 -0.00207274 2.55431 -5.17831 -5.171 -9.53773 -0.000201224 -0.0135379 -0.0269432 -3.51527 
3 -0.00431894 -0.00190458 5.10762 -5.17312 -5.16609 -9.527 -0.000851638 -0.0138282 -0.0256635 -3.51532 
4 -0.00465632 -0.00168665 7.66114 -5.16265 -5.15647 -9.50507 -0.00173266 -0.0117902 -0.0244362 -3.51541 
5 -0.00498244 -0.00143285 10.215 -5.14594 -5.14128 -9.46985 -0.0027618 -0.00728952 -0.0232798 -3.51557 
6 -0.00526571 -0.00116299 12.7694 -5.12189 -5.11935 -9.41867 -0.00379454 -0.000664395 -0.0220656 -3.5158 
7 -0.00547282 -0.000897284 15.3246 -5.08914 -5.08913 -9.34834 -0.00466904 0.0073338 -0.0205883 -3.51612 
8 -0.00557564 -0.000651434 17.8809 -5.04585 -5.04842 -9.25497 -0.00525785 0.0157295 -0.0186745 -3.51655 
9 -0.00555676 -0.000434296 20.4386 -4.9893 -4.99423 -9.13387 -0.00550078 0.0235546 -0.01627 -3.5171 
10 -0.00541212 -0.000248244 22.998 -4.91563 -4.9224 -8.97957 -0.00541069 0.0300388 -0.0134726 -3.5178 
11 -0.00515044 -9.14659e-05 25.5597 -4.81957 -4.82756 -8.78643 -0.00505749 0.0347164 -0.0105132 -3.51866 
12 -0.0047901 3.91185e-05 28.124 -4.69474 -4.70332 -8.55031 -0.00454129 0.0374471 -0.00769669 -3.51969 
13 -0.00435463 0.00014553 30.6914 -4.53518 -4.54379 -8.27166 -0.00396379 0.0383734 -0.00532245 -3.52089 
14 -0.00386776 0.000227795 33.262 -4.33915 -4.34738 -7.95923 -0.00340563 0.0378395 -0.00360377 -3.52219 
15 -0.00334933 0.000284369 35.8358 -4.11439 -4.12199 -7.63053 -0.00291496 0.0362983 -0.00261765 -3.52347 
16 -0.00281282 0.000313042 38.4125 -3.8769 -3.88373 -7.30394 -0.0025074 0.0342144 -0.00231137 -3.52458 
17 -0.00226425 0.000311261 40.9917 -3.63823 -3.64424 -6.98592 -0.00217211 0.031994 -0.00256237 -3.52548 
18 -0.00169973 0.000275944 43.5731 -3.39938 -3.40454 -6.66371 -0.00187561 0.0300263 -0.00323194 -3.5262 
19 -0.00110137 0.000203022 46.1569 -3.13514 -3.13932 -6.30056 -0.00154853 0.0286875 -0.00417251 -3.52695 
20 -0.000439962 8.41529e-05 48.7435 -2.75191 -2.75415 -5.86111 -0.000859572 0.0277951 -0.00533062 -3.52782 
21 5.95933e-07 -4.11185e-08 51.3317 -1.92309 -1.92293 -4.91981 7.94552e-05 -0.00140563 0.000264214 -3.53203 
22 4.01304e-07 -1.42881e-06 53.9138 -0.851893 -0.851902 -8.91777 9.29813e-07 -2.79673e-05 -7.13176e-05 -3.48169 
23 8.71386e-07 -1.98378e-06 56.3885 1.68559 1.6856 1.87689 -1.50264e-05 2.35025e-05 -3.65954e-07 -2.55581 
24 -1.23087e-07 -1.12453e-06 -53.8876 -2.60698 -2.607 -6.54962 -1.83429e-05 1.08106e-05 -3.22634e-05 -3.40183 
25 1.02659e-07 -1.55837e-06 -51.3239 -2.07911 -2.07927 -5.57923 -0.000270142 0.000703609 0.0014622 -3.52873 
26 -0.000180408 -0.000416811 -48.7462 -2.69395 -2.69147 -6.1469 0.00356395 -0.011435 -0.0260317 -3.5264 
27 -0.000420188 -0.00100458 -46.1646 -3.02099 -3.01654 -6.34682 0.00631047 -0.00963941 -0.0243707 -3.52678 
28 -0.000596571 -0.00145366 -43.5822 -3.30259 -3.29638 -6.60717 0.00694724 -0.00640795 -0.0231617 -3.52635 
29 -0.000714104 -0.0017981 -41.0007 -3.55822 -3.55004 -6.89561 0.00690237 -0.00286925 -0.0223708 -3.52575 
30 -0.000792616 -0.00205695 -38.4209 -3.80875 -3.79859 -7.20455 0.00639463 0.000696384 -0.0218308 -3.52491 
31 -0.000853907 -0.00224159 -35.8434 -4.05543 -4.0435 -7.52993 0.00553412 0.00398955 -0.0214492 -3.52385 
32 -0.000920031 -0.00236175 -33.2685 -4.28883 -4.27557 -7.8606 0.0044459 0.00667702 -0.0212362 -3.52261 
33 -0.00101056 -0.00242839 -30.6968 -4.49585 -4.48189 -8.1789 0.00328913 0.00849394 -0.0212579 -3.52132 
34 -0.00113897 -0.00245392 -28.1283 -4.66794 -4.65395 -8.46766 0.00222949 0.00934022 -0.021581 -3.5201 
35 -0.00131003 -0.00245083 -25.5629 -4.80411 -4.79068 -8.71629 0.00139483 0.00931704 -0.022227 -3.51901 
36 -0.00151942 -0.00243015 -23.0002 -4.90839 -4.89596 -8.92183 0.000842335 0.00867326 -0.0231532 -3.5181 
37 -0.00175586 -0.00240068 -20.4398 -4.98668 -4.97546 -9.08668 0.000553448 0.0076836 -0.0242725 -3.51736 
38 -0.00200508 -0.00236923 -17.8814 -5.04477 -5.03478 -9.21588 0.000457005 0.00652225 -0.0254858 -3.51677 
39 -0.00225424 -0.00234111 -15.3244 -5.08756 -5.07866 -9.31526 0.000466073 0.00519375 -0.026699 -3.51632 
40 -0.00249526 -0.00232002 -12.7686 -5.11886 -5.11084 -9.39034 0.000509811 0.00355281 -0.027817 -3.51597 
41 -0.0027265 -0.00230693 -10.2138 -5.14156 -5.13415 -9.44593 0.000547015 0.00140198 -0.0287264 -3.51571 
42 -0.00295252 -0.00229832 -7.6595 -5.15775 -5.15068 -9.48598 0.000559299 -0.00137644 -0.0292951 -3.51553 
43 -0.00318236 -0.00228512 -5.10572 -5.16889 -5.16191 -9.51356 0.000531796 -0.00470512 -0.0294031 -3.5154 
44 -0.00342695 -0.00225333 -2.55224 -5.17587 -5.16879 -9.53076 0.000433849 -0.00825097 -0.0289947 -3.51532 
45 0.0924193 2.15789 1.27692 -4.05596 -5.14034 -3.8375 -0.0511664 -0.451951 0.00350545 -3.52907 
46 0.0657531 2.15903 3.83011 -4.05003 -5.13951 -3.83167 -0.039725 -0.452173 -0.00562059 -3.52908 
47 0.0390852 2.15988 6.38343 -4.04487 -5.13635 -3.81754 -0.0282654 -0.450841 -0.0151523 -3.5291 
48 0.012466 2.16043 8.93704 -4.04117 -5.13064 -3.79384 -0.0165772 -0.447995 -0.0253572 -3.52913 
49 -0.0140507 2.16065 11.4911 -4.03991 -5.12199 -3.75891 -0.00450273 -0.444 -0.0364307 -3.52917 
50 -0.0404165 2.16052 14.0458 -4.04198 -5.10967 -3.71069 0.00794453 -0.439436 -0.0485608 -3.52922 
51 -0.066596 2.16003 16.6015 -4.04785 -5.09247 -3.64654 0.0205177 -0.434913 -0.0619972 -3.52928 
52 -0.092571 2.15917 19.1584 -4.05723 -5.06845 -3.56313 0.0327458 -0.430915 -0.0770704 -3.52935 
53 -0.118341 2.15795 21.7168 -4.06865 -5.0347 -3.45638 0.0439907 -0.427717 -0.0941177 -3.52943 
54 -0.14392 2.15639 24.2772 -4.07891 -4.98698 -3.32167 0.0535296 -0.425368 -0.113269 -3.52953 
55 -0.169333 2.15452 26.8399 -4.08223 -4.91929 -3.15463 0.0606648 -0.423728 -0.134042 -3.52967 
56 -0.194609 2.15241 29.4055 -4.06917 -4.82392 -2.95278 0.0649006 -0.422511 -0.154781 -3.52986 
57 -0.219769 2.15014 31.9742 -4.02642 -4.69273 -2.71823 0.0662288 -0.421325 -0.172347 -3.53012 
58 -0.244818 2.14783 34.5463 -3.94014 -4.52134 -2.45995 0.065441 -0.419676 -0.183243 -3.53047 
59 -0.269734 2.1455 37.1216 -3.80477 -4.31512 -2.19218 0.0640882 -0.416986 -0.187189 -3.53087 
60 -0.294475 2.1431 39.6996 -3.62859 -4.08876 -1.9264 0.0637339 -0.412785 -0.189222 -3.53128 
61 -0.319016 2.14052 42.2798 -3.42351 -3.85301 -1.66292 0.0650906 -0.407167 -0.19544 -3.53164 
62 -0.343394 2.13769 44.8621 -3.19601 -3.6047 -1.39036 0.0674018 -0.400697 -0.212419 -3.53193 
63 -0.367768 2.13484 47.4464 -2.91616 -3.29373 -1.10611 0.0673335 -0.3958 -0.231878 -3.53223 
64 -0.392512 2.13371 50.032 -2.43434 -2.80059 -0.495159 0.0605474 -0.414677 -0.201195 -3.53323 
65 -0.418483 2.1304 52.6263 -1.76576 -2.00553 -0.561412 0.0455106 -0.308934 -0.729987 -3.52457 
66 -0.44812 2.14653 55.1778 6.97658 7.73843 2.4309 0.0330135 -0.597323 1.77022 -3.02528 
67 0.649859 2.05055 -55.162 1.38944 0.842378 -0.678391 -0.188254 -0.099198 1.20761 -3.26036 
68 0.633027 2.08274 -52.6122 -1.11195 -2.21866 -0.457719 -0.37449 -0.489286 -0.161467 -3.53566 
69 0.607028 2.08678 -50.0319 -2.0027 -2.55464 -0.871282 -0.17032 -0.429562 0.0813224 -3.53398 
70 0.581315 2.08835 -47.4532 -2.63738 -3.07103 -1.20613 -0.127028 -0.403372 0.155195 -3.5329 
71 0.556508 2.09191 -44.8711 -3.05866 -3.44035 -1.36608 -0.106727 -0.397746 0.198643 -3.53225 
72 0.531887 2.09624 -42.2892 -3.35752 -3.72585 -1.59501 -0.0982127 -0.401519 0.210212 -3.53183 
73 0.507158 2.10078 -39.7085 -3.60111 -3.98182 -1.84567 -0.0970424 -0.406932 0.216124 -3.53141 
74 0.482225 2.1054 -37.1298 -3.8033 -4.21985 -2.10934 -0.101462 -0.4119 0.219609 -3.53098 
75 0.457084 2.11011 -34.5537 -3.96095 -4.43485 -2.37889 -0.109829 -0.416045 0.21834 -3.53055 
76 0.431767 2.1149 -31.9806 -4.06979 -4.61704 -2.64221 -0.119819 -0.41967 0.209611 -3.53018 
77 0.406302 2.11973 -29.4107 -4.13315 -4.7612 -2.88561 -0.128902 -0.423067 0.193413 -3.52988 
78 0.380704 2.12449 -26.8441 -4.16143 -4.86944 -3.09903 -0.135222 -0.426275 0.172327 -3.52965 
79 0.354978 2.12908 -24.2805 -4.16655 -4.94812 -3.27821 -0.137962 -0.429208 0.149409 -3.52948 
80 0.329132 2.13343 -21.7193 -4.15842 -5.00446 -3.42372 -0.137126 -0.431802 0.12691 -3.52936 
81 0.303176 2.13748 -19.1602 -4.14401 -5.04468 -3.53891 -0.133163 -0.43408 0.106072 -3.52927 
82 0.277122 2.14121 -16.6027 -4.12776 -5.07357 -3.62824 -0.126671 -0.436151 0.0873787 -3.52921 
83 0.250982 2.1446 -14.0466 -4.11218 -5.09454 -3.69624 -0.118239 -0.438188 0.070862 -3.52916 
84 0.224761 2.14764 -11.4914 -4.09847 -5.10995 -3.74701 -0.108383 -0.440364 0.0563414 -3.52912 
85 0.198459 2.15034 -8.93699 -4.08695 -5.12131 -3.78399 -0.0975481 -0.442791 0.0435577 -3.5291 
86 0.172072 2.1527 -6.38309 -4.07741 -5.12961 -3.80991 -0.0861203 -0.445443 0.0322231 -3.52908 
87 0.145599 2.15473 -3.82956 -4.06939 -5.1354 -3.82677 -0.0744307 -0.44812 0.0220194 -3.52907 
88 0.119044 2.15646 -1.27627 -4.06238 -5.13895 -3.8358 -0.0627329 -0.450448 0.0125823 -3.52906 
89 0.215383 4.32456 -0.000178158 -3.39631 -4.74663 -3.30053 -0.0738594 -0.93218 0.0379554 -3.53364 
90 0.285203 6.49698 1.27573 -2.77671 -4.34865 -2.86384 -0.0791018 -1.36001 0.0489214 -3.53381 
91 2.20515 2.73546 0.000422948 -3.39162 -3.54837 -3.05211 -0.416442 -0.328962 0.248069 -3.52983 
92 2.17133 2.76218 2.55357 -3.37633 -3.55694 -3.05087 -0.416326 -0.335219 0.240177 -3.52983 
93 2.29128 4.92679 1.27596 -2.72835 -3.57422 -2.73145 -0.346121 -0.805162 0.0123208 -3.53335 
94 4.288 3.33543 1.2776 -3.40178 -2.90202 -2.72835 -0.49878 -0.212799 0.760392 -3.53335 
95 0.162269 4.327 2.55279 -3.38579 -4.74722 -3.29785 -0.0592505 -0.932505 0.0198335 -3.53365 
96 0.109152 4.3288 5.10583 -3.3778 -4.74742 -3.28891 -0.0443046 -0.931051 0.00138109 -3.53366 
97 0.205601 6.50006 3.82842 -2.76493 -4.35017 -2.85842 -0.0611808 -1.35874 0.0229489 -3.53382 
98 2.23073 4.9543 3.829 -2.71276 -3.58264 -2.72729 -0.336636 -0.806694 -0.0036867 -3.53335 
99 0.126091 6.50211 6.38124 -2.75833 -4.35294 -2.84815 -0.0425504 -1.35608 -0.0036084 -3.53383 
100 4.24673 3.3873 3.83068 -3.38483 -2.91493 -2.72313 -0.505218 -0.227477 0.753858 -3.53336 
101 2.13716 2.78843 5.10681 -3.36177 -3.56667 -3.04297 -0.414715 -0.340626 0.232351 -3.52983 
102 2.10267 2.81421 7.66027 -3.34858 -3.57787 -3.02755 -0.411104 -0.34532 0.224407 -3.52983 
103 2.16988 4.98096 6.3822 -2.70016 -3.59267 -2.71672 -0.325052 -0.807201 -0.0198091 -3.53336 
104 4.20479 3.43856 6.38393 -3.36956 -2.93058 -2.71167 -0.509329 -0.241689 0.74708 -3.53336 
105 0.0561143 4.32994 7.65906 -3.37385 -4.74739 -3.27302 -0.028777 -0.928039 -0.0178108 -3.53368 
106 0.00323481 4.33039 10.2127 -3.37565 -4.74724 -3.24924 -0.0125501 -0.924048 -0.038127 -3.53369 
107 0.0467741 6.50312 8.93431 -2.75894 -4.35732 -2.83254 -0.0232284 -1.35275 -0.0312895 -3.53383 
108 2.1088 5.00673 8.93568 -2.69197 -3.60451 -2.6989 -0.311042 -0.807133 -0.0365033 -3.53336 
109 -0.0322701 6.50306 11.4878 -2.76833 -4.36355 -2.81084 -0.00342454 -1.3496 -0.0606812 -3.53382 
110 4.16223 3.48918 8.93746 -3.35679 -2.94929 -2.69314 -0.510629 -0.255812 0.739872 -3.53336 
111 2.06793 2.83946 10.2141 -3.33766 -3.59072 -3.00334 -0.404991 -0.349641 0.216101 -3.52983 
112 2.03298 2.86418 12.7685 -3.32995 -3.60509 -2.96864 -0.395995 -0.354132 0.207085 -3.52982 
113 2.04755 5.03159 11.4896 -2.68959 -3.61813 -2.67271 -0.294445 -0.807164 -0.0543731 -3.53336 
114 4.11909 3.53911 11.4914 -3.34744 -2.97127 -2.66633 -0.508692 -0.270392 0.731972 -3.53336 
115 -0.049422 4.33014 12.7668 -3.3847 -4.74686 -3.21626 0.00428095 -0.91981 -0.0599897 -3.5337 
116 -0.101814 4.32917 15.3217 -3.40194 -4.7458 -3.17231 0.0213983 -0.915982 -0.0839084 -3.53371 
117 -0.110993 6.50191 14.0419 -2.78745 -4.37168 -2.78192 0.0164988 -1.34734 -0.092458 -3.5338 
118 1.98617 5.05551 14.0442 -2.69411 -3.63323 -2.6367 -0.275266 -0.80807 -0.0741704 -3.53336 
119 -0.189377 6.49966 16.5968 -2.81653 -4.3814 -2.74404 0.0360998 -1.34638 -0.127388 -3.53376 
120 4.07541 3.58832 14.046 -3.34225 -2.99655 -2.62965 -0.503185 -0.286137 0.722982 -3.53336 
121 1.99784 2.88832 15.3237 -3.32617 -3.62048 -2.92135 -0.383905 -0.359478 0.19688 -3.52981 
122 1.96253 2.91188 17.8799 -3.32653 -3.63595 -2.8589 -0.368659 -0.36641 0.18489 -3.52979 
123 1.92469 5.07844 16.5996 -2.70614 -3.64922 -2.58896 -0.253628 -0.810611 -0.096758 -3.53335 
124 4.03119 3.63678 16.6015 -3.34168 -3.02489 -2.5811 -0.493858 -0.303865 0.712336 -3.53335 
125 -0.153923 4.32747 17.8776 -3.42758 -4.7431 -3.11494 0.0383133 -0.912977 -0.11048 -3.5337 
126 -0.20575 4.32504 20.4348 -3.46101 -4.73702 -3.04087 0.0544377 -0.910915 -0.140308 -3.5337 
127 -0.267423 6.49629 19.1527 -2.85524 -4.39185 -2.69464 0.0549311 -1.34676 -0.166279 -3.53371 
128 1.86311 5.10038 19.1561 -2.72571 -3.66507 -2.52705 -0.229704 -0.815442 -0.12303 -3.53334 
129 -0.345145 6.49181 21.7099 -2.90263 -4.40137 -2.63017 0.0725918 -1.34818 -0.209835 -3.53364 
130 3.98643 3.68447 19.158 -3.3457 -3.05572 -2.51825 -0.480518 -0.324438 0.699315 -3.53334 
131 1.92707 2.93483 20.4374 -3.33052 -3.64994 -2.77816 -0.350302 -0.375601 0.170462 -3.52976 
132 1.89143 2.95717 22.9967 -3.33648 -3.66003 -2.67553 -0.328979 -0.387537 0.153027 -3.52973 
133 1.80141 5.1213 21.7141 -2.75215 -3.67918 -2.44795 -0.203694 -0.823068 -0.153763 -3.53331 
134 3.94114 3.73134 21.716 -3.35358 -3.0879 -2.43819 -0.463044 -0.348645 0.683106 -3.53332 
135 -0.257312 4.32189 22.9936 -3.50048 -4.72471 -2.94588 0.0691368 -0.909643 -0.173798 -3.53369 
136 -0.308632 4.31809 25.5544 -3.54255 -4.70165 -2.82506 0.0817532 -0.908836 -0.210764 -3.5337 
137 -0.422557 6.48626 24.2687 -2.95685 -4.40699 -2.54591 0.0887399 -1.35003 -0.258343 -3.53357 
138 1.73959 5.14119 24.2738 -2.78376 -3.689 -2.34811 -0.175888 -0.83378 -0.189348 -3.53328 
139 -0.499674 6.47972 26.8296 -3.01439 -4.40369 -2.43609 0.103046 -1.35158 -0.311126 -3.53351 
140 3.8953 3.77739 24.2756 -3.3636 -3.11935 -2.33769 -0.441491 -0.377012 0.662975 -3.53329 
141 1.85562 2.97892 25.558 -3.34108 -3.66236 -2.54718 -0.305025 -0.402302 0.132375 -3.52968 
142 1.81965 3.00011 28.1218 -3.33833 -3.65092 -2.38978 -0.279189 -0.41919 0.109167 -3.52962 
143 1.67764 5.16011 26.8357 -2.81716 -3.69051 -2.22385 -0.146857 -0.847512 -0.229303 -3.53323 
144 3.84894 3.82261 26.8375 -3.37233 -3.14639 -2.21333 -0.416324 -0.409404 0.638622 -3.53324 
145 -0.35974 4.31371 28.1178 -3.58084 -4.66101 -2.67346 0.0916203 -0.908111 -0.249802 -3.53373 
146 -0.410663 4.3089 30.684 -3.60448 -4.59323 -2.48775 0.0981479 -0.907081 -0.287594 -3.53381 
147 -0.57651 6.47235 29.393 -3.06872 -4.3835 -2.29451 0.115078 -1.35215 -0.365739 -3.53348 
148 1.61558 5.17816 29.4002 -2.84605 -3.67757 -2.07201 -0.117775 -0.863461 -0.271504 -3.53318 
149 -0.653074 6.46443 31.9595 -3.10835 -4.33453 -2.11639 0.124171 -1.35123 -0.417222 -3.5335 
150 3.80215 3.86706 29.4019 -3.37369 -3.16273 -2.06205 -0.388773 -0.444344 0.610805 -3.53318 
151 1.78358 3.02085 30.6886 -3.31849 -3.61691 -2.20182 -0.252952 -0.436147 0.0856615 -3.52957 
152 1.74754 3.04133 33.2587 -3.26791 -3.54916 -1.98547 -0.228693 -0.449513 0.0661067 -3.52956 
153 1.55348 5.19556 31.9678 -2.85963 -3.64115 -1.89109 -0.0907481 -0.879396 -0.311316 -3.53312 
154 3.75509 3.91089 31.9693 -3.35746 -3.15832 -1.88198 -0.36114 -0.478172 0.58221 -3.53311 
155 -0.461413 4.30389 33.2536 -3.59729 -4.48694 -2.26908 0.1011 -0.905216 -0.318946 -3.53397 
156 -0.511963 4.2989 35.8266 -3.54121 -4.3332 -2.02617 0.101062 -0.901549 -0.339278 -3.53423 
157 -0.729363 6.45635 34.5294 -3.11536 -4.24126 -1.90202 0.129515 -1.34828 -0.458477 -3.53363 
158 1.4915 5.21268 34.5386 -2.84146 -3.56918 -1.68284 -0.0687109 -0.891 -0.341679 -3.53308 
159 -0.805316 6.44849 37.103 -3.06822 -4.08898 -1.66158 0.130823 -1.34191 -0.483774 -3.53389 
160 3.70806 3.95433 34.54 -3.30825 -3.11917 -1.67432 -0.336611 -0.504964 0.557839 -3.53308 
161 1.7117 3.06174 35.8321 -3.17233 -3.43762 -1.74797 -0.209074 -0.455317 0.0550822 -3.52962 
162 1.6762 3.0822 38.4085 -3.026 -3.28049 -1.50012 -0.195204 -0.453066 0.0522729 -3.52977 
163 1.42989 5.2299 37.1129 -2.77232 -3.44888 -1.45416 -0.0543245 -0.892911 -0.356574 -3.53314 
164 3.66142 3.99768 37.1141 -3.20772 -3.03095 -1.44574 -0.317985 -0.519217 0.542901 -3.53313 
165 -0.562237 4.29398 38.4028 -3.42713 -4.13434 -1.77423 0.0997217 -0.894822 -0.350063 -3.53458 
166 -0.612146 4.28897 40.9816 -3.26245 -3.90644 -1.52571 0.0993215 -0.884432 -0.360247 -3.53492 
167 -0.880809 6.44093 39.6798 -2.95512 -3.8773 -1.41507 0.129367 -1.33033 -0.496149 -3.53425 
168 1.36885 5.24742 39.6902 -2.64153 -3.27558 -1.21695 -0.0479533 -0.883763 -0.359187 -3.53331 
169 -0.955735 6.4334 42.259 -2.78436 -3.62637 -1.18031 0.127881 -1.31342 -0.508324 -3.53461 
170 3.61542 4.04109 39.6913 -3.04549 -2.8886 -1.20865 -0.305656 -0.522059 0.536048 -3.5333 
171 1.64104 3.10262 40.9876 -2.83719 -3.08669 -1.2497 -0.185393 -0.44793 0.0497373 -3.53 
172 1.60614 3.12288 43.5687 -2.61584 -2.86435 -0.994416 -0.177108 -0.446384 0.0392371 -3.53027 
173 1.30846 5.26509 42.2698 -2.45545 -3.05848 -0.981351 -0.0467606 -0.869978 -0.363869 -3.53355 
174 3.57001 4.08447 42.2709 -2.8289 -2.7006 -0.974825 -0.297433 -0.523234 0.52646 -3.53354 
175 -0.661675 4.28369 43.5624 -3.05834 -3.66003 -1.28022 0.101043 -0.871174 -0.37817 -3.53523 
176 -0.710993 4.27811 46.1447 -2.82677 -3.3934 -1.01802 0.10412 -0.857226 -0.409104 -3.53549 
177 -1.03015 6.42571 44.8395 -2.56305 -3.34341 -0.964231 0.127791 -1.29346 -0.525473 -3.53495 
178 1.24856 5.28277 44.851 -2.22137 -2.80256 -0.748941 -0.0489794 -0.859981 -0.382055 -3.53386 
179 -1.10443 6.41817 47.4204 -2.29844 -3.01766 -0.779251 0.130003 -1.27507 -0.537617 -3.53528 
180 3.52497 4.12776 44.852 -2.56331 -2.47452 -0.750053 -0.290659 -0.531604 0.505623 -3.53383 
181 1.57129 3.14295 46.1516 -2.36653 -2.61633 -0.716788 -0.169965 -0.455929 0.0125898 -3.53054 
182 1.53636 3.16327 48.7364 -2.09019 -2.36102 -0.346042 -0.182735 -0.478807 -0.0259326 -3.53015 
183 1.1887 5.30046 47.4331 -1.94583 -2.50561 -0.518047 -0.0628654 -0.866552 -0.426585 -3.53411 
184 3.48005 4.171 47.4338 -2.24251 -2.22062 -0.541965 -0.285328 -0.557947 0.462266 -3.53403 
185 -0.76061 4.27328 48.7285 -2.60409 -3.07516 -0.672054 0.0974571 -0.849639 -0.413234 -3.53515 
186 -0.811621 4.26877 51.3169 -1.98847 -2.35117 0.310516 0.083885 -0.84171 -0.653435 -3.53805 
187 -1.17889 6.41384 50.0002 -2.05967 -2.54262 -0.336546 0.0873533 -1.28001 -0.616735 -3.53572 
188 1.12775 5.31799 50.0156 -1.56907 -2.0788 -0.020638 -0.110957 -0.945827 -0.595136 -3.53485 
189 -1.25707 6.40546 52.5877 -1.61236 -2.48689 0.643288 0.175758 -1.31617 -0.613149 -3.53282 
190 3.43505 4.21346 50.0156 -1.75825 -1.85272 -0.0377851 -0.309224 -0.668243 0.314292 -3.53491 
191 1.50027 3.18358 51.3264 -1.43157 -1.70133 0.658622 -0.172626 -0.548365 -0.133356 -3.53273 
192 1.46587 3.20964 53.9052 0.0267064 0.953998 -0.795852 0.56631 -0.560979 0.138979 -3.37565 
193 1.06597 5.33731 52.6041 -1.2492 -1.89854 0.441483 -0.236968 -0.801329 -0.410832 -3.52779 
194 3.38747 4.26008 52.6041 -1.41016 -1.71355 0.389832 -0.39066 -0.639451 0.587313 -3.52746 
195 -0.866323 4.2769 53.8949 -0.0508735 -0.20613 -1.18049 0.079376 -1.26166 1.02744 -3.38132 
196 1.3298 4.1174 -56.3442 5.06942 2.90559 1.60242 -1.25473 -0.273892 0.110263 -2.79034 
197 -1.33605 6.40133 55.1665 4.18006 2.79745 1.28996 0.319923 -1.5232 0.197874 -3.26107 
198 1.00488 5.36129 55.1754 5.64207 6.63185 2.70774 0.369858 -0.63646 -0.0326236 -3.15047 
199 1.98371 6.26223 -55.1334 6.93988 9.11553 2.92916 0.134188 -0.847907 -0.525655 -3.02309 
200 3.34328 4.30996 55.1754 5.53064 7.35766 2.86911 0.118706 -0.278629 0.562632 -3.15115 
201 2.87095 2.09325 -56.362 4.04253 6.0065 1.881 -3.16453 0.252642 0.341788 -2.79939 
202 2.84551 2.1252 -53.8874 0.165009 0.763295 -3.02647 -0.982112 -0.732817 -0.162366 -3.51266 
203 3.53831 4.21674 -55.1525 6.03166 6.27391 1.75937 0.302437 -1.21951 -0.044472 -3.1433 
204 5.07312 2.13635 -55.1525 6.04997 7.03886 2.00316 0.446066 -0.52812 0.0805354 -3.14511 
205 1.29262 4.16451 -53.8815 0.861269 -0.348247 -3.67504 -0.408882 -0.573881 0.839002 -3.51412 
206 1.24176 4.17585 -51.3147 -1.28677 -1.91096 -0.373685 -0.214932 -0.880556 0.220151 -3.53903 
207 1.90264 6.26187 -52.5941 -0.917836 -1.45681 -0.573034 -0.18418 -1.16803 0.820001 -3.52792 
208 3.4607 4.22944 -52.6036 -0.748864 -0.925829 0.0954643 -0.677535 -0.496069 0.191367 -3.53019 
209 1.82403 6.27282 -50.0101 -1.64259 -2.32534 -0.262253 -0.200459 -1.2817 0.432894 -3.53673 
210 5.01221 2.17771 -52.6036 -1.34184 -0.348558 0.0546393 -0.502574 0.0191983 0.991505 -3.52952 
211 2.80522 2.14769 -51.32 -1.10365 -0.946831 -0.112559 -0.278073 -0.332997 0.261786 -3.53414 
212 2.77225 2.17461 -48.7405 -1.96833 -1.83652 -0.545207 -0.291581 -0.223885 0.337821 -3.53087 
213 3.40036 4.25787 -50.02 -1.43126 -1.65373 -0.138741 -0.40835 -0.708898 0.286246 -3.53497 
214 4.971 2.23184 -50.02 -1.84398 -1.27387 -0.113498 -0.296356 0.0208055 0.835899 -3.535 
215 1.18965 4.18042 -48.7355 -2.17771 -2.75548 -0.785549 -0.180362 -0.850265 0.28392 -3.5364 
216 1.13971 4.18649 -46.154 -2.63672 -3.19115 -0.973576 -0.165136 -0.833786 0.401932 -3.53604 
217 1.74857 6.27864 -47.4305 -2.10011 -2.83282 -0.673157 -0.213667 -1.24128 0.546164 -3.53588 
218 3.34499 4.28749 -47.4411 -1.89784 -2.20785 -0.561185 -0.301183 -0.639481 0.335757 -3.53414 
219 1.67462 6.29042 -44.8494 -2.46944 -3.19096 -0.861593 -0.200978 -1.24482 0.604465 -3.53533 
220 4.93479 2.28445 -47.4403 -2.32152 -1.78822 -0.540469 -0.212344 0.105612 0.864845 -3.53419 
221 2.74196 2.20189 -46.1593 -2.36409 -2.26785 -0.738398 -0.231966 -0.161652 0.392482 -3.53074 
222 2.71357 2.23052 -43.5775 -2.67631 -2.59078 -0.949846 -0.216131 -0.150263 0.41261 -3.53037 
223 3.29146 4.31966 -44.8604 -2.23355 -2.57308 -0.71647 -0.26081 -0.625411 0.371047 -3.53392 
224 4.90187 2.3375 -44.8595 -2.65663 -2.14342 -0.721726 -0.178307 0.143068 0.896033 -3.53392 
225 1.09052 4.19502 -43.572 -2.97527 -3.51145 -1.20156 -0.15291 -0.84169 0.427135 -3.53553 
226 1.04125 4.20425 -40.9908 -3.23483 -3.7867 -1.44281 -0.150933 -0.854715 0.433461 -3.53509 
227 1.60088 6.30389 -42.2683 -2.75162 -3.49743 -1.08875 -0.200576 -1.26257 0.61985 -3.53483 
228 3.23886 4.3533 -42.2794 -2.5069 -2.86963 -0.916488 -0.243976 -0.627774 0.388555 -3.5336 
229 1.52667 6.31805 -39.6884 -2.96216 -3.76468 -1.33267 -0.207663 -1.28165 0.62328 -3.53438 
230 4.87048 2.39143 -42.2785 -2.93981 -2.42589 -0.927413 -0.167768 0.15472 0.920962 -3.5336 
231 2.68572 2.25987 -40.9963 -2.93217 -2.85223 -1.18024 -0.213687 -0.148304 0.426338 -3.53006 
232 2.65796 2.28981 -38.4167 -3.14559 -3.06717 -1.42268 -0.218704 -0.147522 0.437642 -3.52981 
233 3.1865 4.38798 -39.6994 -2.72407 -3.10971 -1.14044 -0.238731 -0.632683 0.398786 -3.53333 
234 4.83967 2.44632 -39.6985 -3.17659 -2.64389 -1.15129 -0.168531 0.15943 0.942445 -3.53333 
235 0.991596 4.21374 -38.4113 -3.43414 -4.03115 -1.69399 -0.156177 -0.867042 0.43435 -3.53468 
236 0.941514 4.22344 -35.8343 -3.57493 -4.24158 -1.94981 -0.165789 -0.87691 0.428844 -3.53431 
237 1.45184 6.3327 -37.1107 -3.10421 -3.9883 -1.58495 -0.218513 -1.29742 0.618006 -3.53398 
238 3.13411 4.4236 -37.1215 -2.88545 -3.29341 -1.37454 -0.242229 -0.639001 0.400876 -3.53314 
239 1.37644 6.34786 -34.5362 -3.1788 -4.15729 -1.83195 -0.228878 -1.30944 0.599044 -3.53367 
240 4.80916 2.50217 -37.1205 -3.36401 -2.80037 -1.38408 -0.178868 0.159078 0.956155 -3.53314 
241 2.63021 2.3203 -35.8394 -3.31558 -3.23603 -1.6694 -0.23062 -0.149346 0.443296 -3.52963 
242 2.60243 2.35126 -33.2649 -3.43765 -3.35672 -1.91006 -0.249221 -0.157131 0.439451 -3.52955 
243 3.08163 4.46005 -34.5463 -2.98895 -3.41944 -1.60513 -0.253793 -0.650013 0.389592 -3.53306 
244 4.77886 2.55887 -34.5453 -3.49685 -2.89738 -1.61374 -0.198918 0.148696 0.957074 -3.53306 
245 0.891074 4.23335 -33.2603 -3.65671 -4.40908 -2.19887 -0.176411 -0.884584 0.412857 -3.53401 
246 0.840353 4.2434 -30.6896 -3.68704 -4.53092 -2.4276 -0.185046 -0.890921 0.385319 -3.5338 
247 1.30058 6.3634 -31.9652 -3.19602 -4.26967 -2.05744 -0.23572 -1.3188 0.564049 -3.53349 
248 3.02896 4.49703 -31.9745 -3.03939 -3.49508 -1.81955 -0.271738 -0.666712 0.363771 -3.53307 
249 1.22434 6.37896 -29.3977 -3.17382 -4.3352 -2.25038 -0.238017 -1.32613 0.516561 -3.53342 
250 4.74862 2.61614 -31.9733 -3.5776 -2.94439 -1.82804 -0.227127 0.125856 0.945101 -3.53306 
251 2.57454 2.38251 -30.6937 -3.51325 -3.43353 -2.13337 -0.272733 -0.171537 0.425893 -3.52954 
252 2.54642 2.41383 -28.1258 -3.55096 -3.47698 -2.33091 -0.298229 -0.190212 0.405953 -3.52957 
253 2.97592 4.53414 -29.4059 -3.04928 -3.53439 -2.0095 -0.293084 -0.686713 0.327894 -3.53312 
254 4.71815 2.67365 -29.4046 -3.61674 -2.95673 -2.01836 -0.260122 0.0933378 0.924693 -3.5331 
255 0.78939 4.25336 -28.1224 -3.68063 -4.61302 -2.62635 -0.18992 -0.896387 0.349381 -3.53368 
256 0.738197 4.26302 -25.5582 -3.65271 -4.6651 -2.79156 -0.190495 -0.901046 0.309663 -3.53362 
257 1.14773 6.39417 -26.8335 -3.12974 -4.36765 -2.40744 -0.235956 -1.33151 0.462685 -3.53342 
258 2.92235 4.57099 -26.8405 -3.03282 -3.55112 -2.17162 -0.314593 -0.707022 0.287941 -3.53318 
259 1.07077 6.4087 -24.2719 -3.07702 -4.3794 -2.53092 -0.23005 -1.33519 0.407841 -3.53347 
260 4.68715 2.73111 -26.8391 -3.62668 -2.94911 -2.1807 -0.294279 0.0560458 0.900843 -3.53316 
261 2.51791 2.44501 -25.561 -3.56183 -3.49869 -2.49873 -0.322975 -0.210197 0.383588 -3.52962 
262 2.48892 2.47591 -22.9988 -3.55576 -3.50807 -2.63675 -0.345145 -0.229359 0.361635 -3.52967 
263 2.86816 4.6073 -24.2778 -3.00187 -3.55553 -2.30604 -0.333748 -0.725577 0.248422 -3.53323 
264 4.65539 2.78834 -24.2763 -3.61818 -2.93246 -2.31478 -0.326945 0.01827 0.877109 -3.53321 
265 0.686779 4.2722 -22.9967 -3.61503 -4.69666 -2.92443 -0.187025 -0.904921 0.269982 -3.5336 
266 0.635144 4.28079 -20.4373 -3.57536 -4.71518 -3.02873 -0.180122 -0.908163 0.23266 -3.5336 
267 0.99347 6.42234 -21.7127 -3.02415 -4.37966 -2.62574 -0.220873 -1.3377 0.355536 -3.53353 
268 2.81329 4.64291 -21.7174 -2.96486 -3.55431 -2.41489 -0.349116 -0.741449 0.211821 -3.53327 
269 0.915856 6.43495 -19.1551 -2.97585 -4.37452 -2.69739 -0.209037 -1.33968 0.307475 -3.53359 
270 4.62275 2.84519 -21.7158 -3.59928 -2.91387 -2.42275 -0.356657 -0.01728 0.855469 -3.53325 
271 2.45941 2.50645 -20.4388 -3.54023 -3.51155 -2.7474 -0.363869 -0.246615 0.341588 -3.52971 
272 2.42936 2.53657 -17.8807 -3.52029 -3.51308 -2.83428 -0.378968 -0.261669 0.323972 -3.52975 
273 2.75773 4.67773 -19.1589 -2.92709 -3.55148 -2.50131 -0.360219 -0.754543 0.17908 -3.5333 
274 4.58916 2.90162 -19.1573 -3.57541 -2.89734 -2.50792 -0.382867 -0.0493661 0.836743 -3.53328 
275 0.583304 4.2887 -17.8797 -3.53816 -4.72595 -3.1091 -0.170507 -0.911035 0.19873 -3.5336 
276 0.531272 4.29592 -15.3234 -3.5056 -4.73239 -3.17005 -0.158874 -0.913836 0.16838 -3.53361 
277 0.837945 6.44648 -16.599 -2.93419 -4.36767 -2.75084 -0.195178 -1.34167 0.264117 -3.53365 
278 2.7015 4.71172 -16.602 -2.89156 -3.54919 -2.56873 -0.367214 -0.765225 0.150214 -3.53332 
279 0.75975 6.45691 -14.0439 -2.89951 -4.36113 -2.79024 -0.179906 -1.34407 0.225209 -3.53369 
280 4.55462 2.95757 -16.6003 -3.55 -2.88482 -2.57398 -0.405589 -0.0777681 0.821029 -3.53331 
281 2.39879 2.56626 -15.324 -3.49908 -3.51478 -2.90127 -0.390683 -0.274699 0.308747 -3.52977 
282 2.36771 2.59553 -12.7685 -3.47832 -3.5176 -2.95204 -0.399464 -0.286089 0.295606 -3.52979 
283 2.64462 4.74487 -14.0462 -2.85961 -3.54842 -2.62046 -0.3706 -0.774036 0.124778 -3.53333 
284 4.51914 3.01303 -14.0446 -3.52498 -2.87689 -2.6244 -0.42514 -0.102837 0.808035 -3.53332 
285 0.479056 4.30242 -12.7682 -3.4783 -4.73656 -3.21553 -0.145837 -0.916822 0.141342 -3.53362 
286 0.426661 4.30822 -10.2137 -3.4559 -4.73959 -3.24878 -0.131908 -0.920128 0.117147 -3.53362 
287 0.681275 6.46624 -11.4897 -2.87103 -4.35583 -2.81884 -0.163759 -1.34707 0.190169 -3.53373 
288 2.58713 4.77719 -11.4914 -2.8315 -3.54943 -2.65947 -0.371014 -0.781498 0.102156 -3.53334 
289 0.602525 6.47448 -8.93596 -2.84736 -4.35204 -2.83909 -0.147155 -1.35058 0.158302 -3.53375 
290 4.48274 3.06801 -11.4897 -3.50126 -2.87337 -2.66219 -0.441973 -0.125158 0.797288 -3.53333 
291 2.33613 2.62435 -10.2138 -3.45879 -3.5218 -2.98973 -0.405842 -0.29625 0.284147 -3.5298 
292 2.30407 2.65276 -7.65972 -3.44061 -3.52722 -3.01693 -0.410347 -0.305505 0.273979 -3.52981 
293 2.52903 4.8087 -8.9372 -2.80681 -3.55208 -2.68823 -0.369097 -0.787987 0.0817232 -3.53334 
294 4.44546 3.1225 -8.93556 -3.47909 -2.87368 -2.6898 -0.45657 -0.14534 0.788266 -3.53334 
295 0.374085 4.31332 -7.65985 -3.43751 -4.74201 -3.27236 -0.117503 -0.923697 0.0952599 -3.53362 
296 0.321334 4.31773 -5.10638 -3.42201 -4.74401 -3.28813 -0.102932 -0.92724 0.0751334 -3.53363 
297 0.523507 6.48165 -6.38269 -2.82697 -4.34965 -2.85278 -0.130363 -1.35423 0.128908 -3.53377 
298 2.47037 4.83941 -6.38352 -2.78478 -3.55606 -2.70869 -0.365397 -0.793677 0.0629308 -3.53334 
299 0.444244 6.48778 -3.82972 -2.80861 -4.34841 -2.86109 -0.113487 -1.35743 0.101306 -3.53378 
300 4.40731 3.1765 -6.3819 -3.45832 -2.87715 -2.70912 -0.469355 -0.163888 0.780467 -3.53334 
301 2.27155 2.68075 -5.1061 -3.42358 -3.53357 -3.0356 -0.413438 -0.314033 0.264758 -3.52982 
302 2.23856 2.70832 -2.55276 -3.40735 -3.54064 -3.04708 -0.415433 -0.321872 0.256199 -3.52982 
303 2.41116 4.86933 -3.83019 -2.76463 -3.56112 -2.72224 -0.360286 -0.798543 0.04533 -3.53334 
304 4.36833 3.23 -3.82857 -3.43865 -2.88321 -2.7215 -0.480623 -0.181167 0.77345 -3.53335 
305 0.268423 4.32147 -2.5532 -3.40844 -4.74556 -3.29731 -0.0883751 -0.930263 0.0562147 -3.53363 
306 0.364784 6.49289 -1.27695 -2.79172 -4.34811 -2.8647 -0.0964621 -1.35953 0.0748492 -3.5338 
307 2.35145 4.89846 -1.27707 -2.74583 -3.56714 -2.72972 -0.353899 -0.802428 0.0285611 -3.53335 
308 4.32855 3.28299 -1.27545 -3.41981 -2.89151 -2.72778 -0.490473 -0.197416 0.766853 -3.53335 
309 2.43636 7.09067 -0.000770238 -2.22103 -3.36377 -2.40263 -0.317638 -1.20914 -0.188465 -3.53289 
310 0.434617 8.66784 -0.00097301 -2.25239 -4.02067 -2.4971 -0.100034 -1.74655 0.0828052 -3.53355 