ITEM: TIMESTEP
934
ITEM: NUMBER OF ATOMS
37664
ITEM: BOX BOUNDS ff ff ff
-100 100
-100 100
-156.15 156.15
ITEM: ATOMS id x y z v_peratom_sxx v_peratom_syy v_peratom_szz v_peratom_sxy v_peratom_sxz v_peratom_syz c_atomPE 
1 -0.00369509 -0.00219221 0.00105818 -5.17904 -5.17174 -9.53863 0.000275783 -0.0114451 -0.0279177 -3.51528 
2 -0.00399698 -0.00207617 2.55431 -5.17833 -5.17096 -9.53768 -0.000146875 -0.0136269 -0.0267465 -3.51527 
3 -0.00432624 -0.0019055 5.10762 -5.17313 -5.16606 -9.527 -0.000820592 -0.0139517 -0.0255006 -3.51532 
4 -0.00466916 -0.00168481 7.66113 -5.16263 -5.15644 -9.5051 -0.00173419 -0.0118857 -0.0243268 -3.51541 
5 -0.00500104 -0.00142854 10.215 -5.14584 -5.14124 -9.46987 -0.00279751 -0.00729868 -0.0232299 -3.51557 
6 -0.00528938 -0.00115695 12.7694 -5.12169 -5.1193 -9.41865 -0.00385814 -0.000551447 -0.0220669 -3.5158 
7 -0.00550013 -0.000890393 15.3246 -5.08886 -5.08906 -9.34826 -0.00474965 0.00757511 -0.0206239 -3.51612 
8 -0.00560472 -0.000644519 17.8809 -5.04549 -5.04834 -9.25484 -0.00534402 0.0160802 -0.0187268 -3.51655 
9 -0.00558572 -0.000427979 20.4386 -4.98891 -4.99413 -9.13368 -0.00558321 0.0239806 -0.0163247 -3.5171 
10 -0.00543931 -0.000242919 22.998 -4.91523 -4.9223 -8.97933 -0.005483 0.0304999 -0.0135204 -3.5178 
11 -0.00517459 -8.73165e-05 25.5597 -4.81918 -4.82746 -8.78617 -0.00511611 0.0351738 -0.0105486 -3.51866 
12 -0.00481044 4.20868e-05 28.124 -4.69439 -4.70322 -8.55005 -0.00458503 0.0378682 -0.00771738 -3.51969 
13 -0.00437085 0.000147455 30.6914 -4.53488 -4.5437 -8.27141 -0.0039935 0.038735 -0.00532903 -3.52089 
14 -0.00387999 0.000228908 33.262 -4.33891 -4.34731 -7.95901 -0.00342372 0.0381296 -0.00359928 -3.5222 
15 -0.00335799 0.000284934 35.8358 -4.11421 -4.12193 -7.63034 -0.00292466 0.0365159 -0.00260664 -3.52347 
16 -0.00281853 0.000313296 38.4125 -3.87676 -3.88368 -7.30379 -0.00251192 0.0343669 -0.00229853 -3.52458 
17 -0.00226768 0.000311378 40.9917 -3.63814 -3.64421 -6.9858 -0.00217406 0.0320929 -0.00255152 -3.52548 
18 -0.00170154 0.00027602 43.5731 -3.39932 -3.40451 -6.66363 -0.0018767 0.0300844 -0.00322543 -3.5262 
19 -0.00110214 0.000203082 46.1569 -3.1351 -3.1393 -6.3005 -0.00154952 0.0287164 -0.00417103 -3.52695 
20 -0.000440168 8.4182e-05 48.7435 -2.75189 -2.75413 -5.86108 -0.00086032 0.0278056 -0.00533297 -3.52782 
21 5.95933e-07 -4.11185e-08 51.3317 -1.92306 -1.9229 -4.91977 7.99889e-05 -0.00140439 0.000264567 -3.53203 
22 4.01304e-07 -1.42881e-06 53.9138 -0.851912 -0.851921 -8.91777 8.14543e-07 -2.91767e-05 -7.13845e-05 -3.48169 
23 8.71386e-07 -1.98378e-06 56.3885 1.68559 1.6856 1.87687 -1.59052e-05 2.44084e-05 -2.21856e-07 -2.55581 
24 -1.23087e-07 -1.12453e-06 -53.8876 -2.60694 -2.60696 -6.5496 -1.85216e-05 1.04704e-05 -3.26146e-05 -3.40183 
25 1.02659e-07 -1.55837e-06 -51.3239 -2.07914 -2.07932 -5.5794 -0.000271588 0.000673379 0.00146822 -3.52873 
26 -0.000171823 -0.000417939 -48.7462 -2.6944 -2.69178 -6.14744 0.00357285 -0.0108986 -0.0261042 -3.5264 
27 -0.000400151 -0.00100668 -46.1646 -3.02153 -3.01686 -6.34744 0.00632141 -0.00907071 -0.0244221 -3.52678 
28 -0.000567539 -0.00145579 -43.5822 -3.30319 -3.2967 -6.60783 0.00693877 -0.00571777 -0.0231801 -3.52635 
29 -0.000676926 -0.00179935 -41.0007 -3.55889 -3.55037 -6.8963 0.00686002 -0.00202682 -0.0223499 -3.52574 
30 -0.000747972 -0.0020566 -38.4209 -3.80949 -3.79893 -7.20524 0.00630744 0.00168664 -0.0217651 -3.52491 
31 -0.000802978 -0.00223918 -35.8434 -4.0562 -4.04384 -7.5306 0.00539701 0.0050935 -0.0213381 -3.52384 
32 -0.000864726 -0.00235722 -33.2686 -4.28959 -4.27591 -7.8612 0.00426257 0.00783736 -0.0210883 -3.52261 
33 -0.00095341 -0.00242215 -30.6968 -4.49655 -4.4822 -8.17939 0.00307282 0.00964256 -0.0210903 -3.52132 
34 -0.00108281 -0.00244679 -28.1283 -4.66854 -4.65421 -8.46802 0.00200006 0.0104136 -0.0214152 -3.5201 
35 -0.00125757 -0.00244379 -25.5629 -4.80457 -4.79088 -8.71651 0.00117376 0.010269 -0.0220819 -3.51901 
36 -0.0014729 -0.00242415 -23.0002 -4.90871 -4.89609 -8.92192 0.000647943 0.00948153 -0.0230398 -3.5181 
37 -0.00171674 -0.00239642 -20.4399 -4.98685 -4.97552 -9.08665 0.000397945 0.0083509 -0.0241918 -3.51736 
38 -0.00197387 -0.00236709 -17.8814 -5.04482 -5.03478 -9.21576 0.000345564 0.00707073 -0.025429 -3.51678 
39 -0.00223053 -0.00234116 -15.3244 -5.08751 -5.07861 -9.31508 0.000397759 0.00565366 -0.026651 -3.51632 
40 -0.00247797 -0.00232212 -12.7687 -5.11875 -5.11075 -9.39012 0.000479806 0.00394891 -0.0277602 -3.51597 
41 -0.00271425 -0.00231079 -10.2138 -5.14142 -5.13405 -9.44569 0.000549127 0.0017435 -0.0286451 -3.51572 
42 -0.00294395 -0.00230354 -7.65952 -5.15762 -5.15058 -9.48574 0.000587516 -0.00109776 -0.0291785 -3.51553 
43 -0.0031765 -0.00229115 -5.10573 -5.16878 -5.16181 -9.51334 0.000580211 -0.00450854 -0.029248 -3.5154 
44 -0.00342343 -0.00225941 -2.55225 -5.17581 -5.16871 -9.53058 0.000495251 -0.00815459 -0.0288071 -3.51532 
45 0.0924204 2.15788 1.27692 -4.05614 -5.1403 -3.83749 -0.0511285 -0.452133 0.0036518 -3.52907 
46 0.0657464 2.15903 3.83011 -4.05003 -5.13946 -3.83168 -0.0397603 -0.452347 -0.00550048 -3.52908 
47 0.0390702 2.15988 6.38343 -4.04465 -5.13629 -3.81753 -0.0283636 -0.450965 -0.0150701 -3.5291 
48 0.0124433 2.16043 8.93703 -4.04074 -5.13057 -3.7938 -0.0167129 -0.448039 -0.0253139 -3.52913 
49 -0.0140793 2.16065 11.4911 -4.0393 -5.12192 -3.75884 -0.00464535 -0.443959 -0.0364177 -3.52918 
50 -0.0404487 2.16052 14.0458 -4.04126 -5.1096 -3.71059 0.00782064 -0.439321 -0.0485654 -3.52922 
51 -0.0666293 2.16004 16.6015 -4.0471 -5.09241 -3.64641 0.0204276 -0.434744 -0.0620077 -3.52928 
52 -0.0926031 2.15918 19.1583 -4.05651 -5.06839 -3.56297 0.0326938 -0.430715 -0.0770785 -3.52935 
53 -0.11837 2.15796 21.7168 -4.068 -5.03465 -3.45621 0.043974 -0.427506 -0.0941185 -3.52943 
54 -0.143945 2.15639 24.2772 -4.07836 -4.98693 -3.3215 0.053541 -0.425165 -0.11326 -3.52953 
55 -0.169354 2.15452 26.8399 -4.0818 -4.91925 -3.15446 0.0606952 -0.423548 -0.134025 -3.52967 
56 -0.194624 2.15241 29.4055 -4.06885 -4.82388 -2.95263 0.0649406 -0.422364 -0.154756 -3.52986 
57 -0.21978 2.15014 31.9742 -4.0262 -4.6927 -2.7181 0.0662698 -0.421214 -0.172318 -3.53012 
58 -0.244826 2.14783 34.5463 -3.94001 -4.52131 -2.45984 0.0654765 -0.419598 -0.183214 -3.53047 
59 -0.269739 2.1455 37.1216 -3.8047 -4.3151 -2.1921 0.0641147 -0.416936 -0.187162 -3.53087 
60 -0.294477 2.1431 39.6996 -3.62855 -4.08875 -1.92634 0.0637507 -0.412755 -0.189201 -3.53128 
61 -0.319017 2.14052 42.2798 -3.4235 -3.85299 -1.66287 0.0650988 -0.407151 -0.195425 -3.53164 
62 -0.343394 2.13769 44.8621 -3.19601 -3.60469 -1.39032 0.0674039 -0.40069 -0.212409 -3.53193 
63 -0.367768 2.13484 47.4464 -2.91615 -3.29372 -1.10608 0.0673334 -0.395798 -0.231872 -3.53223 
64 -0.392512 2.13371 50.032 -2.43434 -2.80059 -0.495129 0.0605493 -0.414679 -0.201192 -3.53323 
65 -0.418483 2.1304 52.6263 -1.76577 -2.00552 -0.561407 0.0455049 -0.308931 -0.730001 -3.52457 
66 -0.44812 2.14653 55.1778 6.9766 7.73843 2.4309 0.0330165 -0.597322 1.77022 -3.02528 
67 0.649859 2.05055 -55.162 1.38944 0.842389 -0.678361 -0.188253 -0.0991978 1.20761 -3.26036 
68 0.633027 2.08274 -52.6122 -1.11196 -2.21867 -0.457719 -0.374491 -0.489286 -0.161474 -3.53566 
69 0.607028 2.08678 -50.0319 -2.00276 -2.55482 -0.871503 -0.17025 -0.429483 0.0813354 -3.53398 
70 0.581326 2.08835 -47.4532 -2.63771 -3.0712 -1.20652 -0.127061 -0.403202 0.155252 -3.5329 
71 0.556527 2.09191 -44.8711 -3.05908 -3.44051 -1.36648 -0.106775 -0.397572 0.198726 -3.53225 
72 0.531913 2.09624 -42.2892 -3.35802 -3.726 -1.59541 -0.0982813 -0.401318 0.210335 -3.53183 
73 0.507191 2.10078 -39.7085 -3.6017 -3.98198 -1.84608 -0.0971364 -0.406698 0.216283 -3.53141 
74 0.482263 2.10541 -37.1298 -3.804 -4.22002 -2.10974 -0.101581 -0.411639 0.219798 -3.53097 
75 0.457128 2.11012 -34.5537 -3.96174 -4.43503 -2.37927 -0.109965 -0.415767 0.218545 -3.53055 
76 0.431814 2.11491 -31.9806 -4.07063 -4.61722 -2.64256 -0.119959 -0.419389 0.209815 -3.53018 
77 0.406351 2.11974 -29.4108 -4.13402 -4.76137 -2.8859 -0.129028 -0.422799 0.193601 -3.52988 
78 0.380753 2.1245 -26.8442 -4.16227 -4.86959 -3.09926 -0.135318 -0.426031 0.172486 -3.52965 
79 0.355024 2.12909 -24.2805 -4.16732 -4.94824 -3.27838 -0.138014 -0.428992 0.149534 -3.52948 
80 0.329174 2.13343 -21.7193 -4.15908 -5.00454 -3.42383 -0.137127 -0.431616 0.127003 -3.52936 
81 0.303213 2.13748 -19.1602 -4.14456 -5.04472 -3.53896 -0.133112 -0.43392 0.106143 -3.52927 
82 0.277154 2.14121 -16.6027 -4.12819 -5.07358 -3.62824 -0.126573 -0.436015 0.0874384 -3.52921 
83 0.251009 2.1446 -14.0466 -4.11253 -5.09453 -3.69621 -0.118101 -0.438075 0.0709243 -3.52916 
84 0.224784 2.14764 -11.4914 -4.09877 -5.10992 -3.74696 -0.108217 -0.440283 0.0564181 -3.52912 
85 0.198478 2.15033 -8.937 -4.08724 -5.12128 -3.78392 -0.0973682 -0.442754 0.0436568 -3.5291 
86 0.172088 2.15269 -6.3831 -4.07772 -5.12958 -3.80985 -0.0859437 -0.445465 0.0323475 -3.52908 
87 0.145612 2.15472 -3.82957 -4.06971 -5.13538 -3.82672 -0.0742787 -0.448208 0.0221649 -3.52907 
88 0.119051 2.15645 -1.27627 -4.06265 -5.13893 -3.83577 -0.0626286 -0.450597 0.012737 -3.52906 
89 0.215387 4.32455 -0.000176249 -3.39652 -4.7466 -3.30054 -0.0738632 -0.932402 0.038047 -3.53364 
90 0.285197 6.49698 1.27573 -2.77657 -4.34859 -2.86382 -0.079191 -1.36018 0.0489625 -3.53381 
91 2.20515 2.73546 0.000421911 -3.39177 -3.54831 -3.05206 -0.416426 -0.329038 0.248105 -3.52983 
92 2.17133 2.76218 2.55357 -3.37635 -3.55684 -3.05085 -0.416372 -0.335311 0.240194 -3.52983 
93 2.29128 4.92679 1.27596 -2.72838 -3.57413 -2.73147 -0.346186 -0.805302 0.0123046 -3.53335 
94 4.288 3.33543 1.2776 -3.40181 -2.90195 -2.72832 -0.498808 -0.212862 0.76041 -3.53335 
95 0.162262 4.327 2.55279 -3.3857 -4.74716 -3.29785 -0.0593276 -0.932695 0.0199072 -3.53365 
96 0.109135 4.3288 5.10582 -3.37741 -4.74734 -3.28888 -0.0444295 -0.931168 0.00143054 -3.53366 
97 0.205583 6.50006 3.82842 -2.76446 -4.35009 -2.85837 -0.0612878 -1.35884 0.0229777 -3.53382 
98 2.23072 4.9543 3.829 -2.71256 -3.58253 -2.72732 -0.336731 -0.806808 -0.00371011 -3.53335 
99 0.126063 6.50211 6.38123 -2.75761 -4.35285 -2.84806 -0.0426454 -1.35609 -0.00359039 -3.53383 
100 4.24672 3.3873 3.83068 -3.38473 -2.91485 -2.72311 -0.50528 -0.227546 0.753862 -3.53336 
101 2.13715 2.78844 5.10681 -3.36162 -3.56654 -3.04298 -0.414809 -0.340713 0.232352 -3.52983 
102 2.10266 2.81421 7.66027 -3.34826 -3.57774 -3.02758 -0.411221 -0.345379 0.2244 -3.52983 
103 2.16986 4.98096 6.3822 -2.69976 -3.59256 -2.71674 -0.32515 -0.807266 -0.0198291 -3.53336 
104 4.20478 3.43856 6.38393 -3.36932 -2.93049 -2.71166 -0.509408 -0.24175 0.747072 -3.53336 
105 0.0560878 4.32994 7.65906 -3.3732 -4.7473 -3.27296 -0.0289152 -0.928066 -0.0177837 -3.53368 
106 0.00320212 4.33039 10.2126 -3.37485 -4.74715 -3.24913 -0.0126701 -0.923992 -0.0381147 -3.53369 
107 0.0467402 6.50312 8.93431 -2.75808 -4.35723 -2.83242 -0.02329 -1.35269 -0.0312772 -3.53383 
108 2.10877 5.00673 8.93567 -2.69142 -3.60442 -2.6989 -0.311119 -0.80714 -0.0365097 -3.53336 
109 -0.0323066 6.50306 11.4878 -2.76744 -4.36347 -2.8107 -0.00344356 -1.34949 -0.0606695 -3.53382 
110 4.16221 3.48918 8.93746 -3.35644 -2.9492 -2.69313 -0.510706 -0.255851 0.739858 -3.53336 
111 2.06791 2.83947 10.2141 -3.3372 -3.5906 -3.00336 -0.405102 -0.349655 0.216097 -3.52983 
112 2.03295 2.86418 12.7685 -3.3294 -3.60499 -2.96865 -0.396079 -0.354097 0.207093 -3.52982 
113 2.04752 5.03159 11.4896 -2.68896 -3.61805 -2.67268 -0.294487 -0.807114 -0.0543593 -3.53336 
114 4.11907 3.53911 11.4914 -3.347 -2.97119 -2.66631 -0.50875 -0.2704 0.73196 -3.53336 
115 -0.0494577 4.33015 12.7668 -3.38383 -4.74678 -3.21613 0.00419887 -0.91969 -0.0599832 -3.5337 
116 -0.10185 4.32917 15.3217 -3.40109 -4.74574 -3.17217 0.0213609 -0.91582 -0.0839009 -3.53371 
117 -0.111029 6.50192 14.0419 -2.78661 -4.37161 -2.78178 0.0165211 -1.34719 -0.0924433 -3.5338 
118 1.98614 5.05551 14.0442 -2.69346 -3.63318 -2.63663 -0.27527 -0.807975 -0.0741342 -3.53336 
119 -0.18941 6.49966 16.5968 -2.8158 -4.38134 -2.7439 0.0361555 -1.34622 -0.127368 -3.53376 
120 4.07539 3.58832 14.046 -3.34177 -2.99648 -2.62962 -0.503215 -0.286111 0.722976 -3.53336 
121 1.99781 2.88833 15.3237 -3.32558 -3.62041 -2.92134 -0.383951 -0.359398 0.196905 -3.52981 
122 1.96251 2.91188 17.8799 -3.32595 -3.6359 -2.85885 -0.368666 -0.366296 0.184932 -3.52979 
123 1.92467 5.07844 16.5996 -2.70553 -3.64918 -2.58887 -0.253597 -0.810486 -0.0967012 -3.53335 
124 4.03117 3.63678 16.6015 -3.3412 -3.02484 -2.58106 -0.493858 -0.303809 0.712342 -3.53336 
125 -0.153956 4.32747 17.8776 -3.42681 -4.74304 -3.1148 0.0383177 -0.912794 -0.110467 -3.53371 
126 -0.20578 4.32504 20.4347 -3.46036 -4.73697 -3.04072 0.0544751 -0.910729 -0.140288 -3.5337 
127 -0.267451 6.49629 19.1527 -2.85465 -4.3918 -2.69452 0.055009 -1.3466 -0.166254 -3.53371 
128 1.86308 5.10038 19.1561 -2.72518 -3.66505 -2.52694 -0.229645 -0.815303 -0.122956 -3.53334 
129 -0.345168 6.49181 21.7099 -2.90219 -4.40134 -2.63007 0.07268 -1.34804 -0.209805 -3.53364 
130 3.98641 3.68447 19.158 -3.34525 -3.05568 -2.51818 -0.480489 -0.324358 0.699333 -3.53334 
131 1.92704 2.93483 20.4374 -3.32999 -3.64992 -2.77809 -0.350273 -0.375466 0.17052 -3.52976 
132 1.89141 2.95717 22.9967 -3.33603 -3.66003 -2.67543 -0.328921 -0.387394 0.153097 -3.52973 
133 1.80139 5.1213 21.7141 -2.75172 -3.67918 -2.44782 -0.203616 -0.822928 -0.153679 -3.53331 
134 3.94112 3.73134 21.716 -3.3532 -3.08787 -2.43812 -0.462992 -0.348552 0.683135 -3.53332 
135 -0.257336 4.3219 22.9936 -3.49998 -4.72467 -2.94574 0.0691962 -0.909472 -0.17377 -3.5337 
136 -0.308651 4.31809 25.5544 -3.54218 -4.70162 -2.82494 0.0818227 -0.908692 -0.21073 -3.5337 
137 -0.422574 6.48626 24.2687 -2.95656 -4.40696 -2.54583 0.0888275 -1.34992 -0.25831 -3.53357 
138 1.73957 5.14119 24.2738 -2.78344 -3.689 -2.34798 -0.175801 -0.833651 -0.18926 -3.53328 
139 -0.499686 6.47971 26.8296 -3.01423 -4.40368 -2.43603 0.103125 -1.3515 -0.31109 -3.53351 
140 3.89528 3.77738 24.2756 -3.36328 -3.11934 -2.3376 -0.441424 -0.376914 0.663014 -3.53329 
141 1.8556 2.97892 25.558 -3.34072 -3.66236 -2.54706 -0.30495 -0.402164 0.132451 -3.52968 
142 1.81964 3.00011 28.1218 -3.33806 -3.65093 -2.38966 -0.279107 -0.419066 0.109243 -3.52962 
143 1.67762 5.16011 26.8357 -2.81693 -3.69052 -2.22372 -0.146771 -0.847402 -0.229218 -3.53323 
144 3.84893 3.8226 26.8375 -3.37208 -3.14638 -2.21325 -0.41625 -0.409309 0.638666 -3.53324 
145 -0.359754 4.31371 28.1177 -3.5806 -4.66099 -2.67335 0.0916897 -0.908001 -0.249764 -3.53373 
146 -0.410673 4.3089 30.684 -3.60434 -4.59321 -2.48766 0.0982091 -0.907006 -0.287555 -3.53381 
147 -0.576517 6.47235 29.393 -3.06865 -4.38349 -2.29447 0.115142 -1.3521 -0.365704 -3.53348 
148 1.61557 5.17816 29.4002 -2.84591 -3.67757 -2.0719 -0.117698 -0.863375 -0.271426 -3.53318 
149 -0.653079 6.46443 31.9595 -3.10833 -4.33453 -2.11635 0.124219 -1.35121 -0.417189 -3.5335 
150 3.80214 3.86706 29.4019 -3.37351 -3.16272 -2.06196 -0.388701 -0.444258 0.610851 -3.53318 
151 1.78357 3.02085 30.6886 -3.3183 -3.61692 -2.2017 -0.252873 -0.436043 0.0857327 -3.52957 
152 1.74754 3.04133 33.2586 -3.26778 -3.54917 -1.98536 -0.228624 -0.449432 0.0661689 -3.52956 
153 1.55347 5.19556 31.9678 -2.85956 -3.64115 -1.89099 -0.0906852 -0.879334 -0.31125 -3.53312 
154 3.75508 3.91088 31.9693 -3.35734 -3.15832 -1.8819 -0.361075 -0.4781 0.582254 -3.53311 
155 -0.461419 4.30389 33.2536 -3.59723 -4.48693 -2.26902 0.101148 -0.905169 -0.31891 -3.53397 
156 -0.511967 4.2989 35.8266 -3.54119 -4.33319 -2.02612 0.101097 -0.901523 -0.339246 -3.53423 
157 -0.729366 6.45635 34.5294 -3.11538 -4.24126 -1.902 0.129548 -1.34827 -0.458448 -3.53363 
158 1.4915 5.21268 34.5386 -2.84142 -3.56918 -1.68275 -0.0686636 -0.890959 -0.341625 -3.53309 
159 -0.805317 6.44849 37.103 -3.06825 -4.08899 -1.66157 0.130843 -1.34191 -0.48375 -3.53389 
160 3.70805 3.95433 34.54 -3.30817 -3.11917 -1.67424 -0.336558 -0.504907 0.557878 -3.53308 
161 1.7117 3.06174 35.832 -3.17226 -3.43763 -1.74787 -0.209019 -0.455258 0.0551332 -3.52962 
162 1.67619 3.08219 38.4085 -3.02596 -3.28049 -1.50004 -0.195165 -0.453026 0.0523119 -3.52978 
163 1.42988 5.2299 37.1129 -2.77231 -3.44888 -1.45409 -0.0542919 -0.892885 -0.356533 -3.53314 
164 3.66142 3.99768 37.1141 -3.20767 -3.03094 -1.44568 -0.317944 -0.519175 0.542933 -3.53313 
165 -0.562239 4.29398 38.4028 -3.42713 -4.13434 -1.77419 0.0997427 -0.89481 -0.350037 -3.53458 
166 -0.612147 4.28897 40.9816 -3.26246 -3.90644 -1.52569 0.0993318 -0.884428 -0.360229 -3.53492 
167 -0.880809 6.44093 39.6798 -2.95514 -3.87731 -1.41506 0.129377 -1.33033 -0.496131 -3.53425 
168 1.36885 5.24742 39.6902 -2.64153 -3.27557 -1.2169 -0.0479329 -0.883748 -0.359158 -3.53331 
169 -0.955735 6.4334 42.259 -2.78438 -3.62638 -1.1803 0.127884 -1.31343 -0.508312 -3.53461 
170 3.61542 4.04109 39.6913 -3.04546 -2.88859 -1.20859 -0.305627 -0.52203 0.536073 -3.5333 
171 1.64104 3.10262 40.9876 -2.83717 -3.08668 -1.24964 -0.185367 -0.447904 0.049765 -3.53 
172 1.60614 3.12288 43.5687 -2.61583 -2.86435 -0.994367 -0.177092 -0.44637 0.0392548 -3.53027 
173 1.30846 5.26509 42.2698 -2.45546 -3.05847 -0.981309 -0.0467491 -0.869971 -0.36385 -3.53355 
174 3.57001 4.08447 42.2709 -2.82889 -2.7006 -0.974779 -0.297413 -0.523215 0.526477 -3.53354 
175 -0.661676 4.28369 43.5624 -3.05835 -3.66003 -1.2802 0.101046 -0.871174 -0.378158 -3.53523 
176 -0.710993 4.27811 46.1447 -2.82678 -3.3934 -1.018 0.104119 -0.857229 -0.409098 -3.53549 
177 -1.03015 6.42571 44.8395 -2.56307 -3.34341 -0.964228 0.12779 -1.29347 -0.525465 -3.53495 
178 1.24856 5.28277 44.851 -2.22138 -2.80255 -0.748907 -0.0489738 -0.859979 -0.382044 -3.53386 
179 -1.10443 6.41817 47.4204 -2.29845 -3.01766 -0.779254 0.130001 -1.27508 -0.537612 -3.53528 
180 3.52497 4.12776 44.852 -2.5633 -2.47452 -0.750013 -0.290647 -0.531593 0.505634 -3.53383 
181 1.57129 3.14295 46.1516 -2.36653 -2.61632 -0.716748 -0.169956 -0.455922 0.0126003 -3.53054 
182 1.53636 3.16327 48.7364 -2.09018 -2.361 -0.346011 -0.18273 -0.478802 -0.0259215 -3.53015 
183 1.1887 5.30046 47.4331 -1.94583 -2.5056 -0.518012 -0.0628634 -0.866553 -0.426579 -3.53411 
184 3.48005 4.171 47.4338 -2.24251 -2.22061 -0.541924 -0.285322 -0.557942 0.462272 -3.53403 
185 -0.760609 4.27328 48.7285 -2.60408 -3.07515 -0.67205 0.0974578 -0.849642 -0.413231 -3.53515 
186 -0.811621 4.26877 51.3169 -1.98848 -2.35116 0.310512 0.0838824 -0.841709 -0.653437 -3.53805 
187 -1.17889 6.41384 50.0002 -2.05966 -2.54263 -0.33654 0.0873584 -1.28001 -0.616728 -3.53572 
188 1.12775 5.31799 50.0156 -1.56907 -2.0788 -0.0206313 -0.110957 -0.945823 -0.595129 -3.53485 
189 -1.25707 6.40546 52.5877 -1.61235 -2.48689 0.643297 0.175759 -1.31617 -0.613144 -3.53282 
190 3.43505 4.21346 50.0156 -1.75824 -1.85272 -0.0377745 -0.309222 -0.668241 0.314304 -3.53491 
191 1.50027 3.18358 51.3264 -1.43157 -1.70132 0.658618 -0.172626 -0.548366 -0.133359 -3.53273 
192 1.46587 3.20964 53.9052 0.0267025 0.953993 -0.795867 0.566308 -0.560983 0.138972 -3.37565 
193 1.06597 5.33731 52.6041 -1.24921 -1.89855 0.441469 -0.236971 -0.801326 -0.410824 -3.52779 
194 3.38747 4.26008 52.6041 -1.41016 -1.71356 0.389819 -0.390657 -0.639444 0.587322 -3.52746 
195 -0.866323 4.2769 53.8949 -0.0508694 -0.206138 -1.18049 0.0793781 -1.26166 1.02744 -3.38132 
196 1.3298 4.1174 -56.3442 5.06942 2.90559 1.60242 -1.25473 -0.273892 0.110264 -2.79034 
197 -1.33605 6.40133 55.1665 4.18005 2.79746 1.28995 0.319921 -1.5232 0.197883 -3.26107 
198 1.00488 5.36129 55.1754 5.64209 6.63186 2.70774 0.369866 -0.636458 -0.0326131 -3.15047 
199 1.98371 6.26223 -55.1334 6.93989 9.11553 2.92917 0.134187 -0.847908 -0.525658 -3.02309 
200 3.34328 4.30996 55.1754 5.53065 7.35768 2.86912 0.118703 -0.278623 0.562638 -3.15115 
201 2.87095 2.09325 -56.362 4.04253 6.0065 1.88101 -3.16453 0.252646 0.341791 -2.79939 
202 2.84551 2.1252 -53.8874 0.165019 0.763303 -3.02646 -0.982109 -0.732815 -0.162365 -3.51266 
203 3.53831 4.21674 -55.1525 6.03166 6.27392 1.75936 0.302437 -1.21951 -0.0444715 -3.1433 
204 5.07312 2.13635 -55.1525 6.04997 7.03887 2.00315 0.446065 -0.528119 0.0805377 -3.14511 
205 1.29262 4.16451 -53.8815 0.86127 -0.348232 -3.67504 -0.408876 -0.573881 0.839001 -3.51412 
206 1.24176 4.17585 -51.3147 -1.28679 -1.91098 -0.373752 -0.214931 -0.880566 0.220148 -3.53903 
207 1.90264 6.26187 -52.5941 -0.917831 -1.4568 -0.573012 -0.184179 -1.16803 0.820001 -3.52792 
208 3.4607 4.22944 -52.6036 -0.748877 -0.925833 0.0954438 -0.677535 -0.49607 0.191366 -3.53019 
209 1.82403 6.27282 -50.0101 -1.64262 -2.32543 -0.262352 -0.200436 -1.28164 0.43293 -3.53673 
210 5.01221 2.17771 -52.6036 -1.34184 -0.348568 0.0546191 -0.502576 0.0191982 0.991504 -3.52952 
211 2.80522 2.14769 -51.32 -1.10367 -0.946856 -0.112673 -0.27808 -0.333012 0.261784 -3.53414 
212 2.77226 2.17461 -48.7405 -1.96853 -1.83662 -0.545497 -0.291616 -0.223656 0.337914 -3.53087 
213 3.40036 4.25787 -50.02 -1.43135 -1.65383 -0.138917 -0.408376 -0.70881 0.286301 -3.53497 
214 4.971 2.23184 -50.02 -1.8441 -1.27394 -0.113667 -0.296368 0.0209028 0.835932 -3.535 
215 1.18965 4.18042 -48.7355 -2.17791 -2.75561 -0.785771 -0.180402 -0.850131 0.283989 -3.5364 
216 1.13972 4.1865 -46.154 -2.63698 -3.19126 -0.973843 -0.165199 -0.83368 0.402003 -3.53604 
217 1.74858 6.27864 -47.4305 -2.10028 -2.8329 -0.673367 -0.213715 -1.24121 0.546229 -3.53588 
218 3.345 4.28749 -47.4411 -1.89799 -2.20789 -0.561462 -0.301219 -0.639344 0.335847 -3.53414 
219 1.67464 6.29042 -44.8494 -2.46965 -3.19105 -0.8618 -0.201054 -1.24476 0.604541 -3.53533 
220 4.9348 2.28445 -47.4403 -2.3217 -1.78824 -0.540724 -0.212365 0.105775 0.864895 -3.53419 
221 2.74197 2.20189 -46.1593 -2.36439 -2.26787 -0.738726 -0.232004 -0.161465 0.392565 -3.53074 
222 2.71359 2.23052 -43.5775 -2.67669 -2.59076 -0.950203 -0.216181 -0.150064 0.412707 -3.53037 
223 3.29147 4.31967 -44.8604 -2.23377 -2.5731 -0.716748 -0.260864 -0.625282 0.371144 -3.53392 
224 4.90189 2.3375 -44.8595 -2.65691 -2.14343 -0.721978 -0.178337 0.143221 0.896083 -3.53392 
225 1.09054 4.19502 -43.572 -2.97558 -3.51155 -1.20183 -0.152998 -0.841573 0.427227 -3.53553 
226 1.04127 4.20425 -40.9909 -3.23522 -3.7868 -1.44309 -0.151049 -0.854578 0.433579 -3.53509 
227 1.60089 6.3039 -42.2683 -2.75187 -3.49753 -1.08896 -0.20068 -1.26249 0.619944 -3.53483 
228 3.23888 4.3533 -42.2794 -2.50718 -2.86964 -0.916785 -0.244045 -0.627633 0.388669 -3.5336 
229 1.52669 6.31805 -39.6884 -2.96247 -3.76478 -1.33288 -0.207796 -1.28156 0.623391 -3.53438 
230 4.8705 2.39143 -42.2785 -2.94016 -2.42588 -0.92768 -0.167808 0.15488 0.92102 -3.5336 
231 2.68574 2.25987 -40.9963 -2.93262 -2.85219 -1.18062 -0.21375 -0.148078 0.426457 -3.53006 
232 2.65799 2.28981 -38.4167 -3.14611 -3.06712 -1.42307 -0.21878 -0.147272 0.437784 -3.52981 
233 3.18652 4.38799 -39.6994 -2.7244 -3.1097 -1.14075 -0.238811 -0.632527 0.398919 -3.53333 
234 4.83969 2.44632 -39.6985 -3.17699 -2.64388 -1.15157 -0.16858 0.159602 0.942512 -3.53333 
235 0.991623 4.21374 -38.4114 -3.43462 -4.03126 -1.69427 -0.156321 -0.866885 0.434488 -3.53468 
236 0.941546 4.22344 -35.8343 -3.5755 -4.24171 -1.95008 -0.165955 -0.876737 0.428991 -3.53431 
237 1.45186 6.33271 -37.1108 -3.10459 -3.98842 -1.58517 -0.218671 -1.29731 0.618125 -3.53398 
238 3.13413 4.42361 -37.1215 -2.88584 -3.29339 -1.37486 -0.242319 -0.638833 0.401024 -3.53314 
239 1.37646 6.34787 -34.5362 -3.17926 -4.15741 -1.83217 -0.229055 -1.30932 0.599162 -3.53367 
240 4.80918 2.50218 -37.1205 -3.36447 -2.80035 -1.38437 -0.178924 0.159257 0.956229 -3.53314 
241 2.63024 2.3203 -35.8394 -3.31618 -3.23597 -1.6698 -0.230707 -0.149081 0.443454 -3.52963 
242 2.60246 2.35126 -33.2649 -3.43829 -3.35668 -1.91044 -0.249314 -0.156868 0.439616 -3.52955 
243 3.08166 4.46005 -34.5463 -2.9894 -3.41942 -1.60545 -0.253888 -0.649843 0.389748 -3.53306 
244 4.77889 2.55888 -34.5453 -3.49736 -2.89737 -1.61402 -0.19898 0.148872 0.957151 -3.53306 
245 0.891111 4.23336 -33.2603 -3.65737 -4.40922 -2.19913 -0.176587 -0.884404 0.412999 -3.53401 
246 0.840393 4.24341 -30.6897 -3.68777 -4.53106 -2.42784 -0.185216 -0.89074 0.385444 -3.5338 
247 1.30061 6.36341 -31.9652 -3.19656 -4.26981 -2.05765 -0.235904 -1.31868 0.564154 -3.53349 
248 3.02899 4.49704 -31.9745 -3.0399 -3.49506 -1.81985 -0.271832 -0.66655 0.363923 -3.53307 
249 1.22437 6.37898 -29.3977 -3.17443 -4.33533 -2.25057 -0.238193 -1.32601 0.516644 -3.53342 
250 4.74865 2.61614 -31.9733 -3.57814 -2.94439 -1.8283 -0.22719 0.126017 0.945174 -3.53306 
251 2.57458 2.38252 -30.6938 -3.51392 -3.4335 -2.13372 -0.272823 -0.171293 0.426052 -3.52954 
252 2.54646 2.41384 -28.1258 -3.55162 -3.47697 -2.33122 -0.298308 -0.19 0.406097 -3.52957 
253 2.97595 4.53415 -29.4059 -3.04983 -3.53437 -2.00978 -0.293169 -0.686569 0.328032 -3.53312 
254 4.71818 2.67365 -29.4046 -3.61729 -2.95675 -2.01861 -0.260181 0.0934737 0.924757 -3.5331 
255 0.789432 4.25337 -28.1224 -3.68142 -4.61315 -2.62656 -0.190065 -0.896212 0.34948 -3.53368 
256 0.73824 4.26303 -25.5582 -3.65351 -4.66522 -2.79174 -0.190598 -0.90088 0.309733 -3.53362 
257 1.14777 6.39418 -26.8335 -3.13042 -4.36777 -2.40762 -0.236107 -1.33139 0.462741 -3.53342 
258 2.92239 4.571 -26.8405 -3.03339 -3.55111 -2.17187 -0.314661 -0.7069 0.288058 -3.53318 
259 1.07081 6.40871 -24.272 -3.07774 -4.3795 -2.53108 -0.230159 -1.33507 0.407869 -3.53347 
260 4.68718 2.73112 -26.8391 -3.62722 -2.94914 -2.18092 -0.294329 0.0561509 0.900892 -3.53316 
261 2.51795 2.44502 -25.561 -3.56246 -3.49871 -2.49899 -0.323032 -0.210023 0.383709 -3.52962 
262 2.48895 2.47592 -22.9988 -3.55633 -3.5081 -2.63695 -0.345173 -0.229222 0.36173 -3.52967 
263 2.86819 4.60731 -24.2778 -3.00245 -3.55553 -2.30625 -0.333791 -0.725478 0.248514 -3.53323 
264 4.65543 2.78834 -24.2763 -3.61869 -2.93251 -2.31497 -0.326978 0.0183444 0.87714 -3.53321 
265 0.686821 4.27221 -22.9967 -3.61582 -4.69674 -2.92457 -0.187071 -0.904766 0.270025 -3.5336 
266 0.635184 4.28079 -20.4373 -3.57612 -4.71524 -3.02883 -0.180103 -0.90802 0.232682 -3.5336 
267 0.993508 6.42235 -21.7127 -3.0249 -4.37972 -2.62587 -0.220927 -1.33758 0.35554 -3.53353 
268 2.81332 4.64292 -21.7174 -2.96543 -3.55432 -2.41506 -0.349127 -0.74137 0.211891 -3.53327 
269 0.915895 6.43496 -19.1552 -2.97664 -4.37455 -2.69748 -0.209031 -1.33956 0.307465 -3.53359 
270 4.62278 2.8452 -21.7158 -3.59974 -2.91392 -2.4229 -0.356668 -0.0172314 0.855484 -3.53325 
271 2.45944 2.50645 -20.4388 -3.54073 -3.51161 -2.74753 -0.363861 -0.246508 0.34166 -3.52971 
272 2.42939 2.53657 -17.8807 -3.52072 -3.51315 -2.83434 -0.378921 -0.261584 0.324028 -3.52975 
273 2.75776 4.67773 -19.159 -2.92765 -3.5515 -2.50144 -0.360195 -0.75448 0.179131 -3.5333 
274 4.58919 2.90162 -19.1573 -3.57583 -2.8974 -2.50803 -0.382851 -0.0493352 0.836745 -3.53328 
275 0.583342 4.2887 -17.8797 -3.53889 -4.72598 -3.10917 -0.170422 -0.910908 0.198742 -3.5336 
276 0.531308 4.29592 -15.3234 -3.5063 -4.7324 -3.17009 -0.158731 -0.913734 0.168395 -3.53361 
277 0.837984 6.44649 -16.599 -2.93503 -4.36767 -2.75091 -0.195114 -1.34158 0.264102 -3.53365 
278 2.70153 4.71172 -16.602 -2.89211 -3.54922 -2.56881 -0.367154 -0.765175 0.150255 -3.53332 
279 0.759789 6.45691 -14.0439 -2.90039 -4.36112 -2.79029 -0.179799 -1.34402 0.225199 -3.53369 
280 4.55464 2.95757 -16.6004 -3.55038 -2.88488 -2.57405 -0.405544 -0.0777465 0.821026 -3.53331 
281 2.39881 2.56626 -15.324 -3.49944 -3.51485 -2.90128 -0.390599 -0.274628 0.308796 -3.52977 
282 2.36773 2.59552 -12.7685 -3.47865 -3.51768 -2.95199 -0.399348 -0.286029 0.295655 -3.52979 
283 2.64465 4.74487 -14.0462 -2.86015 -3.54846 -2.62049 -0.370509 -0.774003 0.124815 -3.53333 
284 4.51916 3.01303 -14.0446 -3.52532 -2.87694 -2.62444 -0.425068 -0.102819 0.808034 -3.53332 
285 0.47909 4.30242 -12.7682 -3.47899 -4.73655 -3.21554 -0.145652 -0.916761 0.141369 -3.53362 
286 0.426691 4.30821 -10.2137 -3.45659 -4.73958 -3.24879 -0.131706 -0.920127 0.117194 -3.53362 
287 0.681313 6.46623 -11.4897 -2.87192 -4.35581 -2.81887 -0.163632 -1.34708 0.190172 -3.53373 
288 2.58715 4.77719 -11.4914 -2.83204 -3.54947 -2.65947 -0.370904 -0.78149 0.102191 -3.53334 
289 0.60256 6.47447 -8.93596 -2.84822 -4.35202 -2.83911 -0.147038 -1.35066 0.158323 -3.53375 
290 4.48276 3.06801 -11.4897 -3.50158 -2.87341 -2.66219 -0.441882 -0.125144 0.797296 -3.53333 
291 2.33615 2.62435 -10.2138 -3.45909 -3.52187 -2.98965 -0.405706 -0.296206 0.284202 -3.5298 
292 2.30409 2.65275 -7.65973 -3.44091 -3.52727 -3.01684 -0.410208 -0.305484 0.274039 -3.52981 
293 2.52906 4.8087 -8.9372 -2.80733 -3.55211 -2.68821 -0.368989 -0.788015 0.0817554 -3.53334 
294 4.44547 3.1225 -8.93556 -3.47939 -2.87371 -2.68978 -0.456474 -0.145332 0.788286 -3.53334 
295 0.374112 4.31331 -7.65985 -3.43817 -4.742 -3.27236 -0.117314 -0.92377 0.0953298 -3.53362 
296 0.321356 4.31772 -5.10638 -3.4226 -4.744 -3.28813 -0.102786 -0.927388 0.0752219 -3.53363 
297 0.523535 6.48165 -6.38269 -2.82772 -4.34963 -2.8528 -0.130285 -1.35439 0.128945 -3.53377 
298 2.47039 4.83941 -6.38352 -2.78526 -3.55607 -2.70867 -0.365313 -0.793747 0.0629564 -3.53334 
299 0.444263 6.48778 -3.82972 -2.80913 -4.34839 -2.86111 -0.113468 -1.35765 0.101355 -3.53378 
300 4.40733 3.1765 -6.3819 -3.4586 -2.87717 -2.70908 -0.469271 -0.163893 0.780497 -3.53334 
301 2.27156 2.68074 -5.1061 -3.42386 -3.5336 -3.0355 -0.413319 -0.314043 0.264817 -3.52982 
302 2.23857 2.70831 -2.55276 -3.40758 -3.54063 -3.04699 -0.415357 -0.321917 0.25625 -3.52982 
303 2.41118 4.86933 -3.83019 -2.76501 -3.56109 -2.72223 -0.360246 -0.798653 0.0453435 -3.53334 
304 4.36834 3.23 -3.82857 -3.43887 -2.8832 -2.72146 -0.480568 -0.181192 0.773484 -3.53335 
305 0.268436 4.32146 -2.5532 -3.40889 -4.74554 -3.29733 -0.0882982 -0.930468 0.0563117 -3.53363 
306 0.36479 6.49289 -1.27695 -2.79193 -4.34807 -2.8647 -0.0965052 -1.35975 0.0748984 -3.5338 
307 2.35145 4.89846 -1.27707 -2.74606 -3.56707 -2.72973 -0.353914 -0.802565 0.0285591 -3.53335 
308 4.32855 3.28299 -1.27545 -3.41996 -2.89147 -2.72774 -0.490458 -0.197462 0.766882 -3.53335 
309 2.43635 7.09067 -0.000767539 -2.22107 -3.36369 -2.40268 -0.317709 -1.2093 -0.188514 -3.53289 
310 0.434613 8.66783 -0.0009723 -2.25225 -4.02061 -2.49707 -0.10012 -1.7467 0.0828217 -3.53355 