ITEM: TIMESTEP
0
ITEM: NUMBER OF ATOMS
37664
ITEM: BOX BOUNDS ff ff ff
-100 100
-100 100
-156.15 156.15
ITEM: ATOMS id x y z v_peratom_sxx v_peratom_syy v_peratom_szz v_peratom_sxy v_peratom_sxz v_peratom_syz c_atomPE 
1 -0.0039153 -0.00204331 0.000949793 -5.17828 -5.16983 -9.53938 0.000892638 -0.0134284 -0.0367484 -3.51526 
2 -0.00411711 -0.00179622 2.55416 -5.17753 -5.16913 -9.53781 0.000169889 -0.0142234 -0.036052 -3.51527 
3 -0.00433114 -0.00150802 5.10745 -5.17234 -5.16439 -9.5264 -0.000777919 -0.0135972 -0.0352993 -3.51532 
4 -0.00455112 -0.00118464 7.66096 -5.16192 -5.15501 -9.50378 -0.00194121 -0.0110976 -0.0345906 -3.51542 
5 -0.00476114 -0.000840196 10.2148 -5.14533 -5.14015 -9.46796 -0.00323515 -0.00660585 -0.0338916 -3.51558 
6 -0.0049379 -0.000493511 12.7693 -5.12146 -5.11865 -9.41638 -0.00451421 -0.00042302 -0.0330334 -3.51582 
7 -0.00505578 -0.00016305 15.3246 -5.08896 -5.08893 -9.34589 -0.00561728 0.00678701 -0.0317892 -3.51614 
8 -0.00509287 0.000137238 17.8809 -5.04595 -5.04879 -9.25263 -0.00641761 0.0141752 -0.0299824 -3.51657 
9 -0.00503581 0.000399719 20.4386 -4.9897 -4.99518 -9.1319 -0.00685367 0.0209201 -0.027568 -3.51712 
10 -0.00488188 0.000622337 22.9981 -4.91629 -4.92395 -8.97819 -0.00693384 0.0263964 -0.0246613 -3.51781 
11 -0.00463834 0.000806228 25.5599 -4.82045 -4.82967 -8.78582 -0.0067215 0.0302639 -0.0215154 -3.51867 
12 -0.00431959 0.000952902 28.1242 -4.6958 -4.70595 -8.55059 -0.00631038 0.0324772 -0.0184613 -3.5197 
13 -0.00394323 0.00106208 30.6916 -4.53639 -4.5469 -8.27288 -0.00579813 0.0332328 -0.0158267 -3.52089 
14 -0.00352618 0.00113084 33.2622 -4.3405 -4.35091 -7.96138 -0.00526438 0.0328824 -0.0138557 -3.52219 
15 -0.00308144 0.00115394 35.8361 -4.11587 -4.12587 -7.63352 -0.00475817 0.0318383 -0.0126632 -3.52346 
16 -0.00261637 0.00112458 38.4127 -3.87846 -3.88784 -7.30761 -0.0042961 0.0304881 -0.0122379 -3.52457 
17 -0.00213201 0.00103462 40.9919 -3.63985 -3.64846 -6.99007 -0.00386612 0.0291412 -0.0124972 -3.52546 
18 -0.0016207 0.000873327 43.5732 -3.40103 -3.40874 -6.66813 -0.00342576 0.0280853 -0.0133658 -3.52619 
19 -0.00106228 0.000624801 46.157 -3.13693 -3.14338 -6.30493 -0.00286953 0.0275925 -0.014795 -3.52693 
20 -0.0004303 0.000264087 48.7436 -2.75392 -2.75748 -5.86489 -0.0016018 0.0271886 -0.0166832 -3.52781 
21 5.95933e-07 -4.11185e-08 51.3317 -1.92318 -1.92291 -4.92079 0.000129324 -0.00139095 0.000872296 -3.53204 
22 4.01304e-07 -1.42881e-06 53.9138 -0.851917 -0.851928 -8.91781 1.85761e-08 -2.77669e-05 -7.18836e-05 -3.48169 
23 8.71386e-07 -1.98378e-06 56.3885 1.68559 1.6856 1.87687 -1.59148e-05 2.44302e-05 -3.4454e-07 -2.55581 
24 -1.23087e-07 -1.12453e-06 -53.8876 -2.60694 -2.60696 -6.5496 -1.65906e-05 8.89782e-06 -3.27722e-05 -3.40183 
25 1.02659e-07 -1.55837e-06 -51.3239 -2.0792 -2.07928 -5.57959 -0.000386262 0.000941531 0.00212499 -3.52873 
26 -0.00024403 -0.000603989 -48.7462 -2.69442 -2.69271 -6.14814 0.00516652 -0.0154049 -0.037756 -3.52639 
27 -0.000559766 -0.00144907 -46.1646 -3.02142 -3.01816 -6.34828 0.00915869 -0.0131605 -0.0351075 -3.52678 
28 -0.000782979 -0.00208811 -43.5822 -3.30305 -3.29802 -6.60856 0.0102394 -0.00945074 -0.0330108 -3.52634 
29 -0.000924193 -0.00257238 -41.0007 -3.55872 -3.55159 -6.89672 0.010443 -0.00566253 -0.0315031 -3.52574 
30 -0.00101054 -0.00293208 -38.421 -3.80925 -3.79992 -7.20521 0.0100782 -0.00213422 -0.0303795 -3.52491 
31 -0.00107022 -0.00318549 -35.8434 -4.05586 -4.04452 -7.53001 0.00928513 0.000788373 -0.0295317 -3.52385 
32 -0.00113127 -0.00334698 -33.2686 -4.28913 -4.2762 -7.86005 0.00820295 0.0027564 -0.0289757 -3.52262 
33 -0.00121876 -0.0034309 -30.6968 -4.49598 -4.48208 -8.17775 0.00700026 0.00354561 -0.0287815 -3.52133 
34 -0.00135066 -0.00345206 -28.1283 -4.66787 -4.65368 -8.46603 0.00584954 0.00315743 -0.029006 -3.52011 
35 -0.00153454 -0.00342441 -25.5628 -4.80384 -4.78997 -8.71438 0.00488316 0.00184155 -0.0296445 -3.51903 
36 -0.00176669 -0.00335974 -23.0001 -4.90794 -4.89484 -8.91989 0.00416117 1.94892e-05 -0.0306173 -3.51811 
37 -0.00203411 -0.00326712 -20.4397 -4.98609 -4.97399 -9.08495 0.00366702 -0.00186475 -0.0317995 -3.51737 
38 -0.0023186 -0.00315356 -17.8812 -5.04407 -5.03304 -9.21459 0.00333137 -0.00349771 -0.0330644 -3.51678 
39 -0.00260172 -0.00302501 -15.3243 -5.08679 -5.07673 -9.31455 0.00307004 -0.00478755 -0.0343084 -3.51632 
40 -0.00286905 -0.00288665 -12.7685 -5.11808 -5.1088 -9.39026 0.00281683 -0.00585825 -0.0354473 -3.51597 
41 -0.00311273 -0.00274211 -10.2137 -5.14079 -5.13206 -9.44642 0.0025373 -0.00695493 -0.0363955 -3.5157 
42 -0.003332 -0.00259173 -7.65946 -5.15699 -5.14858 -9.48689 0.00222128 -0.00830347 -0.0370572 -3.51552 
43 -0.00353231 -0.00243126 -5.10573 -5.16814 -5.15983 -9.51463 0.00186206 -0.00997848 -0.0373455 -3.51538 
44 -0.00372317 -0.00225204 -2.55231 -5.17511 -5.16675 -9.53174 0.00143568 -0.011821 -0.0372251 -3.5153 
45 0.0922827 2.15814 1.27649 -4.0533 -5.13714 -3.83745 -0.0507864 -0.449893 -0.000576643 -3.52907 
46 0.0657518 2.1594 3.82965 -4.04837 -5.13683 -3.83126 -0.0396481 -0.449887 -0.0100252 -3.52909 
47 0.0392209 2.16035 6.38296 -4.0443 -5.13434 -3.8167 -0.0284856 -0.448571 -0.0198925 -3.52911 
48 0.0127301 2.16099 8.93657 -4.0417 -5.12943 -3.79256 -0.0170949 -0.445979 -0.030408 -3.52914 
49 -0.0136764 2.16128 11.4907 -4.04142 -5.12164 -3.75728 -0.00532494 -0.442445 -0.0417392 -3.52918 
50 -0.0399582 2.16121 14.0454 -4.04424 -5.11022 -3.70882 0.00680842 -0.438487 -0.05406 -3.52922 
51 -0.0660854 2.16077 16.6011 -4.05057 -5.09387 -3.64459 0.0190642 -0.434636 -0.0676176 -3.52928 
52 -0.0920423 2.15996 19.1581 -4.06003 -5.07063 -3.56126 0.0309871 -0.431295 -0.0827473 -3.52934 
53 -0.117827 2.15877 21.7166 -4.07115 -5.03755 -3.45475 0.0419615 -0.428667 -0.0997948 -3.52942 
54 -0.143451 2.15723 24.277 -4.08078 -4.99035 -3.32041 0.0512882 -0.426748 -0.118901 -3.52953 
55 -0.168933 2.15538 26.8398 -4.08322 -4.92306 -3.15384 0.0582881 -0.425359 -0.139598 -3.52967 
56 -0.194291 2.15327 29.4054 -4.06913 -4.82794 -2.95254 0.0624766 -0.424196 -0.160245 -3.52986 
57 -0.219541 2.151 31.9742 -4.02533 -4.69689 -2.71858 0.0638475 -0.422863 -0.177726 -3.53012 
58 -0.244677 2.14866 34.5463 -3.93813 -4.52553 -2.46088 0.0631881 -0.420883 -0.188568 -3.53046 
59 -0.26967 2.14629 37.1216 -3.80205 -4.31925 -2.19362 0.0620404 -0.417716 -0.192517 -3.53087 
60 -0.294472 2.14381 39.6996 -3.62548 -4.09272 -1.92821 0.0619568 -0.412945 -0.194633 -3.53128 
61 -0.319054 2.14113 42.2798 -3.42038 -3.85664 -1.66491 0.0636387 -0.406712 -0.201047 -3.53164 
62 -0.34345 2.13816 44.8621 -3.19341 -3.60784 -1.39219 0.0663256 -0.399601 -0.218419 -3.53193 
63 -0.367813 2.13511 47.4464 -2.91507 -3.29627 -1.10671 0.0667104 -0.393941 -0.238765 -3.53223 
64 -0.392512 2.13371 50.032 -2.43249 -2.80151 -0.493666 0.0610081 -0.413265 -0.205419 -3.53324 
65 -0.418483 2.1304 52.6263 -1.76578 -2.00552 -0.561412 0.0454962 -0.308948 -0.729961 -3.52457 
66 -0.44812 2.14653 55.1778 6.9766 7.73843 2.4309 0.0330165 -0.597321 1.77022 -3.02528 
67 0.649859 2.05055 -55.162 1.38944 0.842388 -0.678367 -0.188253 -0.0991977 1.20761 -3.26036 
68 0.633027 2.08274 -52.6122 -1.11197 -2.2187 -0.457712 -0.37449 -0.489289 -0.161417 -3.53566 
69 0.607028 2.08678 -50.0319 -2.00561 -2.55587 -0.875756 -0.169288 -0.42985 0.0761737 -3.53397 
70 0.58126 2.08803 -47.4533 -2.63804 -3.07257 -1.2103 -0.124965 -0.403575 0.147184 -3.5329 
71 0.556411 2.09137 -44.8713 -3.05988 -3.44221 -1.36849 -0.103413 -0.397826 0.191797 -3.53225 
72 0.531764 2.09554 -42.2894 -3.35927 -3.72773 -1.59681 -0.0941262 -0.401509 0.20405 -3.53182 
73 0.50702 2.09995 -39.7087 -3.60339 -3.98365 -1.84702 -0.0924581 -0.406933 0.210461 -3.53141 
74 0.482076 2.1045 -37.13 -3.80608 -4.22153 -2.11022 -0.0965552 -0.412051 0.214335 -3.53097 
75 0.456925 2.10915 -34.5539 -3.96412 -4.43629 -2.37924 -0.104745 -0.416481 0.213367 -3.53055 
76 0.431592 2.11393 -31.9808 -4.07315 -4.61814 -2.64203 -0.114693 -0.420501 0.204866 -3.53017 
77 0.406102 2.11875 -29.4109 -4.13644 -4.76187 -2.88491 -0.123865 -0.424353 0.188837 -3.52988 
78 0.380466 2.12353 -26.8443 -4.16434 -4.86959 -3.09791 -0.130392 -0.428011 0.167881 -3.52965 
79 0.354692 2.12817 -24.2806 -4.16876 -4.9477 -3.27681 -0.133438 -0.431318 0.145079 -3.52948 
80 0.328791 2.13257 -21.7194 -4.15966 -5.00341 -3.42221 -0.132988 -0.434146 0.122702 -3.52936 
81 0.302778 2.13671 -19.1603 -4.14411 -5.04301 -3.53746 -0.129467 -0.436465 0.102005 -3.52928 
82 0.276674 2.14053 -16.6029 -4.12664 -5.0713 -3.62701 -0.123451 -0.438358 0.0834686 -3.52921 
83 0.250498 2.14403 -14.0467 -4.10991 -5.09174 -3.69535 -0.115504 -0.439999 0.0671109 -3.52917 
84 0.224263 2.1472 -11.4916 -4.09526 -5.10671 -3.7465 -0.106121 -0.441592 0.0527259 -3.52913 
85 0.197974 2.15003 -8.93721 -4.08311 -5.11777 -3.78384 -0.0957322 -0.443306 0.0400246 -3.52911 
86 0.171633 2.15253 -6.38337 -4.07332 -5.1259 -3.81003 -0.0847134 -0.445192 0.0286932 -3.52909 
87 0.145236 2.15471 -3.8299 -4.06544 -5.13169 -3.827 -0.0733948 -0.447134 0.0183974 -3.52908 
88 0.118783 2.15658 -1.27665 -4.05892 -5.13541 -3.83597 -0.0620362 -0.448839 0.00877109 -3.52907 
89 0.215204 4.32479 -0.000782935 -3.39191 -4.74247 -3.30012 -0.0732763 -0.929217 0.0362927 -3.53365 
90 0.285142 6.49731 1.27498 -2.77268 -4.34456 -2.86322 -0.0786484 -1.35626 0.0484329 -3.53382 
91 2.20498 2.73569 -5.75661e-05 -3.38886 -3.54402 -3.05079 -0.416097 -0.328421 0.24609 -3.52984 
92 2.17129 2.76248 2.55306 -3.37443 -3.55325 -3.04958 -0.416052 -0.334457 0.238166 -3.52984 
93 2.29122 4.92709 1.2753 -2.72479 -3.57057 -2.73019 -0.345804 -0.80282 0.0116638 -3.53336 
94 4.28792 3.33571 1.27703 -3.39943 -2.89791 -2.72669 -0.498216 -0.212108 0.758705 -3.53336 
95 0.162253 4.32735 2.55215 -3.38277 -4.74378 -3.29734 -0.0589831 -0.929454 0.0179593 -3.53366 
96 0.109298 4.32925 5.10517 -3.37634 -4.74494 -3.28823 -0.0443475 -0.928195 -0.000737192 -3.53367 
97 0.205733 6.50048 3.82764 -2.76274 -4.34716 -2.85785 -0.0610433 -1.35532 0.0222622 -3.53383 
98 2.23083 4.95466 3.82833 -2.71059 -3.5798 -2.72606 -0.336335 -0.804465 -0.0044324 -3.53336 
99 0.126396 6.50261 6.38046 -2.75802 -4.35127 -2.84758 -0.0427366 -1.35329 -0.00452575 -3.53384 
100 4.24678 3.38762 3.83009 -3.38354 -2.91169 -2.7215 -0.504615 -0.226715 0.752217 -3.53336 
101 2.13725 2.7888 5.10628 -3.36089 -3.56385 -3.04167 -0.414482 -0.339859 0.230239 -3.52984 
102 2.10289 2.81463 7.65975 -3.34879 -3.57604 -3.02625 -0.410919 -0.344756 0.222133 -3.52983 
103 2.17012 4.98137 6.38152 -2.69951 -3.5908 -2.71552 -0.324778 -0.805331 -0.0207458 -3.53336 
104 4.20497 3.43891 6.38333 -3.36944 -2.92837 -2.71006 -0.508707 -0.241045 0.745475 -3.53336 
105 0.0564075 4.33046 7.6584 -3.37397 -4.74604 -3.27215 -0.0291308 -0.925647 -0.0201766 -3.53368 
106 0.00364892 4.33099 10.212 -3.37719 -4.7471 -3.24818 -0.0132215 -0.922332 -0.0407221 -3.53369 
107 0.047219 6.50368 8.93355 -2.76033 -4.35709 -2.83195 -0.0237444 -1.35082 -0.0324467 -3.53383 
108 2.10917 5.00719 8.93502 -2.69279 -3.60366 -2.69774 -0.310845 -0.805826 -0.0377172 -3.53336 
109 -0.0317301 6.50367 11.4871 -2.77105 -4.36477 -2.81022 -0.00426856 -1.34864 -0.0620713 -3.53382 
110 4.16252 3.48955 8.93688 -3.35784 -2.94816 -2.69158 -0.510049 -0.255459 0.738281 -3.53336 
111 2.06827 2.83995 10.2136 -3.33891 -3.5899 -3.00205 -0.404897 -0.349461 0.213614 -3.52983 
112 2.0334 2.86471 12.768 -3.33208 -3.6052 -2.96745 -0.396064 -0.35447 0.204347 -3.52982 
113 2.04801 5.03209 11.489 -2.69169 -3.61826 -2.67163 -0.294396 -0.806555 -0.0559264 -3.53336 
114 4.11948 3.53952 11.4909 -3.34953 -2.97116 -2.66486 -0.508245 -0.27047 0.73036 -3.53336 
115 -0.0489226 4.33079 12.7662 -3.38734 -4.74793 -3.21506 0.00328448 -0.918896 -0.0627839 -3.5337 
116 -0.101271 4.32986 15.3211 -3.40523 -4.74798 -3.17104 0.020079 -0.915892 -0.0868663 -3.5337 
117 -0.110409 6.50256 14.0412 -2.791 -4.37422 -2.78127 0.0153444 -1.34735 -0.0940626 -3.53379 
118 1.98669 5.05604 14.0436 -2.69715 -3.63422 -2.63575 -0.275444 -0.808214 -0.0760954 -3.53336 
119 -0.1888 6.50033 16.5961 -2.82036 -4.38505 -2.74334 0.0346736 -1.34725 -0.12918 -3.53375 
120 4.07585 3.58878 14.0455 -3.34515 -2.99733 -2.62833 -0.502974 -0.286736 0.721309 -3.53336 
121 1.99832 2.88891 15.3233 -3.32893 -3.62139 -2.92035 -0.384221 -0.360406 0.193871 -3.5298 
122 1.96304 2.91251 17.8795 -3.32959 -3.63748 -2.8582 -0.369299 -0.367933 0.181609 -3.52978 
123 1.92522 5.07901 16.5991 -2.7097 -3.65091 -2.5882 -0.254098 -0.811481 -0.0990538 -3.53335 
124 4.03166 3.63729 16.601 -3.34507 -3.02638 -2.58001 -0.493979 -0.305019 0.710565 -3.53335 
125 -0.153378 4.32819 17.8771 -3.43105 -4.74621 -3.11366 0.036693 -0.913647 -0.113565 -3.5337 
126 -0.205242 4.32579 20.4343 -3.46415 -4.74086 -3.03962 0.052562 -0.912206 -0.143482 -3.53369 
127 -0.2669 6.49697 19.1521 -2.85881 -4.39634 -2.69388 0.0532925 -1.34832 -0.168226 -3.5337 
128 1.86361 5.10099 19.1557 -2.72933 -3.66728 -2.52655 -0.230505 -0.81694 -0.125663 -3.53333 
129 -0.344713 6.4925 21.7094 -2.90546 -4.40639 -2.62934 0.0708172 -1.3502 -0.211898 -3.53363 
130 3.98691 3.68502 19.1576 -3.34921 -3.05772 -2.51746 -0.481046 -0.326121 0.697416 -3.53334 
131 1.92756 2.93551 20.4371 -3.33351 -3.65193 -2.77786 -0.351315 -0.377659 0.166933 -3.52975 
132 1.89189 2.95789 22.9964 -3.33905 -3.66229 -2.67572 -0.330384 -0.390019 0.14929 -3.52972 
133 1.80185 5.12193 21.7137 -2.75538 -3.68172 -2.44774 -0.204832 -0.82504 -0.156672 -3.53331 
134 3.94158 3.73194 21.7156 -3.35685 -3.0902 -2.43778 -0.464019 -0.350783 0.681061 -3.53332 
135 -0.256874 4.32266 22.9932 -3.50286 -4.72904 -2.94474 0.0670736 -0.911371 -0.177026 -3.53369 
136 -0.308289 4.31887 25.5541 -3.54382 -4.70624 -2.82409 0.079586 -0.910789 -0.214014 -3.53369 
137 -0.422244 6.48696 24.2683 -2.95855 -4.41223 -2.54502 0.0869156 -1.35227 -0.260481 -3.53356 
138 1.73995 5.14186 24.2735 -2.78622 -3.69169 -2.34824 -0.17734 -0.836042 -0.192454 -3.53327 
139 -0.499494 6.48042 26.8293 -3.01472 -4.40887 -2.43516 0.10126 -1.35379 -0.313303 -3.5335 
140 3.89569 3.77803 24.2754 -3.36629 -3.12178 -2.3377 -0.442916 -0.379488 0.66078 -3.53328 
141 1.85602 2.97967 25.5578 -3.34293 -3.66473 -2.54792 -0.306807 -0.405058 0.128484 -3.52967 
142 1.81998 3.00088 28.1217 -3.33925 -3.65328 -2.39111 -0.281297 -0.422052 0.105181 -3.52962 
143 1.67789 5.1608 26.8355 -2.81854 -3.6932 -2.22434 -0.14857 -0.849865 -0.232519 -3.53322 
144 3.84927 3.82328 26.8373 -3.37419 -3.14878 -2.21382 -0.418165 -0.412077 0.636283 -3.53323 
145 -0.359506 4.31449 28.1175 -3.58079 -4.66564 -2.67271 0.0894399 -0.910067 -0.253052 -3.53372 
146 -0.41054 4.30968 30.6838 -3.60304 -4.59772 -2.48727 0.0960437 -0.908826 -0.290835 -3.5338 
147 -0.576463 6.47304 29.3927 -3.06756 -4.38837 -2.29358 0.113411 -1.35409 -0.367929 -3.53347 
148 1.61573 5.17886 29.4001 -2.8462 -3.68012 -2.07285 -0.119675 -0.865711 -0.274749 -3.53317 
149 -0.65315 6.46512 31.9592 -3.10576 -4.33892 -2.11552 0.122691 -1.35271 -0.419422 -3.53349 
150 3.80239 3.86776 29.4017 -3.37454 -3.16496 -2.06302 -0.39096 -0.447065 0.608333 -3.53317 
151 1.78383 3.02164 30.6885 -3.31837 -3.61917 -2.20372 -0.255306 -0.438944 0.0816326 -3.52957 
152 1.7477 3.04211 33.2586 -3.26678 -3.55128 -1.98789 -0.231187 -0.452094 0.0620698 -3.52955 
153 1.55353 5.19626 31.9676 -2.85852 -3.64348 -1.89226 -0.0927422 -0.881369 -0.314531 -3.53311 
154 3.75526 3.91159 31.9692 -3.35726 -3.16033 -1.88342 -0.363571 -0.480802 0.579609 -3.53311 
155 -0.461394 4.30466 33.2534 -3.59457 -4.49117 -2.26891 0.0991537 -0.906556 -0.322191 -3.53396 
156 -0.512031 4.29963 35.8265 -3.53745 -4.33709 -2.02629 0.0993434 -0.902331 -0.342564 -3.53423 
157 -0.729539 6.45701 34.5292 -3.11159 -4.24507 -1.90126 0.128273 -1.34914 -0.460712 -3.53362 
158 1.49147 5.21336 34.5386 -2.83921 -3.57124 -1.68428 -0.0706916 -0.892563 -0.344839 -3.53308 
159 -0.805562 6.44911 37.1028 -3.06365 -4.09219 -1.66094 0.129851 -1.34206 -0.486106 -3.53388 
160 3.70815 3.95503 34.5399 -3.30707 -3.12094 -1.67616 -0.339154 -0.50739 0.555104 -3.53307 
161 1.71178 3.06249 35.8321 -3.17035 -3.43959 -1.7508 -0.211581 -0.457567 0.0510453 -3.52961 
162 1.67622 3.08289 38.4086 -3.02343 -3.28232 -1.5032 -0.197588 -0.454925 0.0482111 -3.52977 
163 1.42978 5.23055 37.1128 -2.76923 -3.45068 -1.45576 -0.0561763 -0.893987 -0.359698 -3.53313 
164 3.66146 3.99834 37.1141 -3.20577 -3.0325 -1.44787 -0.320486 -0.521371 0.540008 -3.53313 
165 -0.562367 4.29465 38.4027 -3.42273 -4.13783 -1.77457 0.0982841 -0.894952 -0.353454 -3.53458 
166 -0.612311 4.28957 40.9816 -3.25792 -3.90946 -1.52614 0.0981988 -0.883877 -0.363837 -3.53492 
167 -0.881089 6.4415 39.6796 -2.95027 -3.87989 -1.41446 0.128674 -1.32974 -0.498675 -3.53425 
168 1.36871 5.24801 39.6902 -2.63797 -3.27711 -1.21853 -0.0495664 -0.884344 -0.362343 -3.5333 
169 -0.95601 6.43389 42.2588 -2.77981 -3.62831 -1.17954 0.127443 -1.31213 -0.511187 -3.53461 
170 3.61541 4.04169 39.6913 -3.04307 -2.88997 -1.2109 -0.307958 -0.523924 0.532953 -3.53329 
171 1.64102 3.10324 40.9876 -2.83439 -3.08837 -1.25279 -0.187521 -0.449391 0.0455885 -3.53 
172 1.60609 3.12338 43.5688 -2.61322 -2.86586 -0.997229 -0.178859 -0.447506 0.0348705 -3.53027 
173 1.3083 5.26559 42.2698 -2.45191 -3.05972 -0.982702 -0.0480452 -0.870124 -0.367177 -3.53355 
174 3.56997 4.08498 42.2709 -2.8264 -2.70181 -0.977008 -0.299383 -0.524846 0.52309 -3.53354 
175 -0.661842 4.28417 43.5623 -3.05425 -3.66241 -1.28046 0.10024 -0.869948 -0.382104 -3.53523 
176 -0.711127 4.27844 46.1446 -2.82379 -3.39473 -1.0176 0.103596 -0.855321 -0.413693 -3.53549 
177 -1.03038 6.42607 44.8394 -2.55938 -3.34446 -0.962869 0.127529 -1.29154 -0.528899 -3.53496 
178 1.24842 5.28313 44.851 -2.21832 -2.80329 -0.74988 -0.0498769 -0.859801 -0.385717 -3.53386 
179 -1.10458 6.41838 47.4203 -2.296 -3.01705 -0.776404 0.129764 -1.27252 -0.54204 -3.53528 
180 3.52493 4.12813 44.852 -2.56111 -2.47543 -0.751995 -0.292105 -0.533042 0.501835 -3.53383 
181 1.57124 3.14329 46.1516 -2.36458 -2.6174 -0.719049 -0.171222 -0.45686 0.0076677 -3.53054 
182 1.53633 3.16338 48.7364 -2.08955 -2.36151 -0.347724 -0.18322 -0.47989 -0.0323081 -3.53015 
183 1.1886 5.30066 47.4331 -1.94357 -2.50521 -0.518766 -0.0633732 -0.86614 -0.430858 -3.53412 
184 3.48001 4.17121 47.4338 -2.24096 -2.22055 -0.54394 -0.286165 -0.559266 0.457737 -3.53404 
185 -0.760666 4.2734 48.7285 -2.603 -3.07462 -0.669954 0.0971283 -0.846667 -0.41952 -3.53516 
186 -0.811621 4.26877 51.3169 -1.98843 -2.35106 0.311829 0.0838896 -0.841935 -0.653073 -3.53805 
187 -1.17889 6.41384 50.0002 -2.0573 -2.54162 -0.333472 0.0867561 -1.27782 -0.619777 -3.53573 
188 1.12775 5.31799 50.0156 -1.56925 -2.07903 -0.0212312 -0.110549 -0.945565 -0.597551 -3.53484 
189 -1.25707 6.40546 52.5877 -1.6124 -2.48693 0.643235 0.175791 -1.31624 -0.613061 -3.53282 
190 3.43505 4.21346 50.0156 -1.75905 -1.85302 -0.0391626 -0.309458 -0.668743 0.311604 -3.5349 
191 1.50027 3.18358 51.3264 -1.43163 -1.70133 0.657898 -0.17263 -0.548529 -0.133058 -3.53273 
192 1.46587 3.20964 53.9052 0.0267028 0.953992 -0.795875 0.566308 -0.560981 0.138974 -3.37565 
193 1.06597 5.33731 52.6041 -1.2492 -1.89859 0.441466 -0.236981 -0.801316 -0.410793 -3.52779 
194 3.38747 4.26008 52.6041 -1.41016 -1.71362 0.389804 -0.39066 -0.639426 0.587366 -3.52746 
195 -0.866323 4.2769 53.8949 -0.0508652 -0.206132 -1.18047 0.0793767 -1.26166 1.02744 -3.38132 
196 1.3298 4.1174 -56.3442 5.06942 2.90559 1.60242 -1.25473 -0.273892 0.110264 -2.79034 
197 -1.33605 6.40133 55.1665 4.18005 2.79746 1.28996 0.319921 -1.5232 0.19788 -3.26107 
198 1.00488 5.36129 55.1754 5.64209 6.63186 2.70775 0.369865 -0.636457 -0.0326139 -3.15047 
199 1.98371 6.26223 -55.1334 6.93988 9.11552 2.92915 0.134187 -0.847907 -0.525664 -3.02309 
200 3.34328 4.30996 55.1754 5.53065 7.35768 2.86911 0.118703 -0.278623 0.562638 -3.15115 
201 2.87095 2.09325 -56.362 4.04253 6.0065 1.88101 -3.16453 0.252646 0.341791 -2.79939 
202 2.84551 2.1252 -53.8874 0.165013 0.763296 -3.02648 -0.982108 -0.732813 -0.162364 -3.51266 
203 3.53831 4.21674 -55.1525 6.03166 6.27391 1.75935 0.302437 -1.21951 -0.0444736 -3.1433 
204 5.07312 2.13635 -55.1525 6.04997 7.03887 2.00315 0.446064 -0.52812 0.0805369 -3.14511 
205 1.29262 4.16451 -53.8815 0.861258 -0.348248 -3.67507 -0.408876 -0.573879 0.839 -3.51412 
206 1.24176 4.17585 -51.3147 -1.287 -1.91114 -0.376332 -0.214921 -0.880491 0.220619 -3.53903 
207 1.90264 6.26187 -52.5941 -0.917889 -1.45675 -0.572973 -0.184162 -1.16801 0.820118 -3.52792 
208 3.4607 4.22944 -52.6036 -0.748898 -0.92584 0.0954338 -0.677507 -0.496044 0.191391 -3.53019 
209 1.82403 6.27282 -50.0101 -1.64509 -2.32859 -0.267919 -0.199685 -1.28156 0.428754 -3.53672 
210 5.01221 2.17771 -52.6036 -1.34186 -0.348579 0.0546034 -0.502558 0.0192204 0.991512 -3.52952 
211 2.80522 2.14769 -51.32 -1.10369 -0.946885 -0.112918 -0.27814 -0.333086 0.262133 -3.53414 
212 2.77225 2.17449 -48.7405 -1.97015 -1.83808 -0.546774 -0.291033 -0.226591 0.332752 -3.53088 
213 3.40036 4.25787 -50.02 -1.43199 -1.65431 -0.140393 -0.408612 -0.709633 0.283913 -3.53497 
214 4.971 2.23184 -50.02 -1.84407 -1.27432 -0.114124 -0.296526 0.02001 0.834003 -3.53501 
215 1.18964 4.18027 -48.7356 -2.17904 -2.75908 -0.79137 -0.17987 -0.850114 0.275956 -3.5364 
216 1.13968 4.18607 -46.1541 -2.63782 -3.19338 -0.977612 -0.162836 -0.833435 0.396022 -3.53604 
217 1.74857 6.27835 -47.4306 -2.10125 -2.83577 -0.67988 -0.21264 -1.24111 0.53999 -3.53588 
218 3.345 4.28726 -47.4411 -1.89919 -2.21019 -0.564068 -0.300452 -0.640645 0.331578 -3.53414 
219 1.67461 6.28991 -44.8496 -2.47067 -3.19287 -0.866138 -0.198775 -1.24438 0.599488 -3.53534 
220 4.93479 2.28427 -47.4403 -2.32291 -1.78988 -0.541804 -0.21145 0.103694 0.861881 -3.5342 
221 2.74192 2.20156 -46.1594 -2.36532 -2.27005 -0.739535 -0.23018 -0.163389 0.388512 -3.53074 
222 2.71349 2.23002 -43.5776 -2.67779 -2.59334 -0.950101 -0.21346 -0.151506 0.409232 -3.53037 
223 3.29145 4.31926 -44.8605 -2.23478 -2.57537 -0.718673 -0.259128 -0.626039 0.367442 -3.53392 
224 4.90184 2.33718 -44.8595 -2.65795 -2.14518 -0.722806 -0.176494 0.141604 0.893556 -3.53393 
225 1.09047 4.1944 -43.5722 -2.97687 -3.51332 -1.20461 -0.149575 -0.841205 0.422093 -3.53553 
226 1.04118 4.20349 -40.9911 -3.23706 -3.78853 -1.44525 -0.146964 -0.854267 0.428979 -3.53509 
227 1.60084 6.30323 -42.2685 -2.75342 -3.49914 -1.09227 -0.197681 -1.2621 0.615599 -3.53484 
228 3.23883 4.35276 -42.2796 -2.50843 -2.87214 -0.917845 -0.241589 -0.628123 0.385439 -3.5336 
229 1.52662 6.31727 -39.6887 -2.96453 -3.76641 -1.3356 -0.204353 -1.28132 0.619525 -3.53439 
230 4.87042 2.391 -42.2786 -2.94132 -2.42801 -0.927919 -0.165283 0.153611 0.918914 -3.5336 
231 2.68561 2.25926 -40.9965 -2.93405 -2.85517 -1.17968 -0.210396 -0.149343 0.423377 -3.53006 
232 2.65784 2.28912 -38.4169 -3.14786 -3.07039 -1.42144 -0.214969 -0.148558 0.434988 -3.52981 
233 3.18644 4.38735 -39.6996 -2.726 -3.11247 -1.14103 -0.235842 -0.63301 0.396025 -3.53333 
234 4.83958 2.44583 -39.6987 -3.17839 -2.64638 -1.15123 -0.165561 0.158494 0.94077 -3.53333 
235 0.991511 4.21288 -38.4116 -3.43695 -4.03298 -1.69594 -0.151822 -0.866772 0.43028 -3.53468 
236 0.941406 4.22252 -35.8346 -3.57818 -4.24335 -1.95128 -0.161231 -0.876935 0.425093 -3.53431 
237 1.45175 6.33184 -37.1111 -3.107 -3.99008 -1.5874 -0.214985 -1.29736 0.614612 -3.53398 
238 3.13402 4.42292 -37.1217 -2.88773 -3.29634 -1.37447 -0.239001 -0.639496 0.398353 -3.53315 
239 1.3763 6.34696 -34.5366 -3.18177 -4.15906 -1.83391 -0.225282 -1.30972 0.595932 -3.53367 
240 4.80905 2.50165 -37.1207 -3.36607 -2.80316 -1.3835 -0.175565 0.158142 0.954784 -3.53315 
241 2.63007 2.31957 -35.8395 -3.31816 -3.23942 -1.66759 -0.226585 -0.150547 0.440854 -3.52964 
242 2.60227 2.35051 -33.2651 -3.44038 -3.36014 -1.90774 -0.245025 -0.15864 0.43713 -3.52955 
243 3.08151 4.45934 -34.5466 -2.99144 -3.42245 -1.60448 -0.250369 -0.650811 0.387208 -3.53306 
244 4.77873 2.55834 -34.5455 -3.49905 -2.90039 -1.61271 -0.195423 0.147614 0.955933 -3.53306 
245 0.890934 4.2324 -33.2606 -3.66017 -4.41069 -2.19984 -0.171801 -0.884989 0.409361 -3.53401 
246 0.840168 4.24244 -30.69 -3.69038 -4.53225 -2.42804 -0.18051 -0.891741 0.382037 -3.5338 
247 1.30038 6.36247 -31.9656 -3.19886 -4.27132 -2.05886 -0.23217 -1.31945 0.561175 -3.53349 
248 3.02879 4.49632 -31.9747 -3.04188 -3.49802 -1.81839 -0.268252 -0.667888 0.361444 -3.53307 
249 1.22406 6.37805 -29.3982 -3.17615 -4.33658 -2.25121 -0.234596 -1.32712 0.513905 -3.53342 
250 4.74846 2.61563 -31.9735 -3.5798 -2.94746 -1.8266 -0.223571 0.124513 0.944105 -3.53306 
251 2.57436 2.38178 -30.6939 -3.51595 -3.4368 -2.13062 -0.26851 -0.17345 0.423607 -3.52954 
252 2.54619 2.41313 -28.126 -3.55339 -3.47989 -2.32784 -0.294109 -0.192566 0.40363 -3.52957 
253 2.9757 4.53345 -29.4062 -3.05148 -3.5371 -2.00789 -0.289658 -0.688279 0.325565 -3.53312 
254 4.71795 2.67318 -29.4049 -3.61872 -2.95968 -2.01658 -0.256629 0.0916653 0.923755 -3.5331 
255 0.789145 4.25242 -28.1227 -3.68349 -4.61393 -2.62627 -0.18556 -0.897596 0.346292 -3.53368 
256 0.73788 4.26212 -25.5585 -3.6547 -4.66546 -2.79101 -0.186393 -0.902553 0.306766 -3.53362 
257 1.14736 6.39329 -26.8339 -3.13116 -4.36858 -2.40768 -0.232718 -1.33273 0.46025 -3.53342 
258 2.92207 4.57035 -26.8408 -3.03444 -3.5534 -2.16965 -0.311339 -0.708917 0.285582 -3.53318 
259 1.07029 6.40787 -24.2724 -3.07716 -4.37969 -2.53061 -0.227026 -1.33649 0.405648 -3.53347 
260 4.68691 2.7307 -26.8393 -3.62823 -2.95169 -2.17865 -0.290961 0.0540337 0.899883 -3.53316 
261 2.51764 2.44436 -25.5612 -3.56374 -3.50101 -2.49544 -0.319076 -0.212955 0.381183 -3.52963 
262 2.4886 2.47533 -22.999 -3.55693 -3.50958 -2.63338 -0.341569 -0.232415 0.359134 -3.52968 
263 2.8678 4.60673 -24.2781 -3.00263 -3.55716 -2.3038 -0.330758 -0.727672 0.246041 -3.53323 
264 4.6551 2.788 -24.2766 -3.6191 -2.93443 -2.31253 -0.323896 0.0159703 0.876062 -3.53321 
265 0.686383 4.27136 -22.997 -3.61582 -4.69632 -2.92351 -0.183237 -0.906576 0.267288 -3.5336 
266 0.634668 4.28002 -20.4376 -3.5747 -4.71405 -3.02757 -0.176686 -0.909771 0.230189 -3.5336 
267 0.992895 6.42157 -21.7131 -3.02275 -4.37913 -2.62496 -0.218078 -1.33888 0.353616 -3.53353 
268 2.81285 4.64241 -21.7177 -2.9645 -3.55512 -2.41249 -0.34646 -0.743565 0.20946 -3.53327 
269 0.915192 6.43427 -19.1556 -2.97278 -4.37305 -2.69626 -0.206476 -1.34052 0.305857 -3.5336 
270 4.6224 2.84493 -21.7161 -3.59937 -2.91497 -2.42038 -0.353949 -0.0197582 0.854293 -3.53325 
271 2.45903 2.50594 -20.439 -3.54049 -3.51208 -2.74408 -0.360694 -0.249803 0.339011 -3.52972 
272 2.42893 2.53615 -17.8809 -3.51955 -3.51248 -2.83113 -0.376247 -0.264789 0.321363 -3.52975 
273 2.75722 4.67732 -19.1593 -2.92547 -3.55131 -2.49887 -0.357943 -0.756468 0.176804 -3.5333 
274 4.58876 2.90144 -19.1576 -3.57458 -2.89738 -2.50552 -0.380545 -0.0518711 0.835417 -3.53329 
275 0.582758 4.28803 -17.88 -3.53594 -4.72398 -3.10784 -0.167444 -0.912379 0.196499 -3.53361 
276 0.530676 4.29535 -15.3237 -3.50189 -4.72958 -3.16883 -0.15619 -0.914705 0.166392 -3.53362 
277 0.837216 6.44591 -16.5995 -2.9295 -4.36519 -2.74951 -0.192849 -1.34196 0.262818 -3.53366 
278 2.70093 4.7114 -16.6024 -2.88865 -3.54796 -2.56634 -0.365335 -0.766747 0.148101 -3.53332 
279 0.75899 6.45646 -14.0444 -2.89342 -4.35768 -2.78885 -0.177811 -1.34364 0.224225 -3.53371 
280 4.55418 2.95747 -16.6007 -3.54822 -2.88367 -2.57162 -0.40367 -0.0801272 0.819556 -3.53331 
281 2.39832 2.56594 -15.3243 -3.49735 -3.51303 -2.89839 -0.38844 -0.27754 0.306164 -3.52978 
282 2.36722 2.59529 -12.7688 -3.47572 -3.51477 -2.94949 -0.397691 -0.288465 0.293105 -3.5298 
283 2.64403 4.74465 -14.0466 -2.85552 -3.54615 -2.61821 -0.369108 -0.774975 0.122899 -3.53334 
284 4.51867 3.01301 -14.0449 -3.52232 -2.87455 -2.62214 -0.42361 -0.104882 0.806435 -3.53333 
285 0.478439 4.30198 -12.7685 -3.47333 -4.73299 -3.21445 -0.143529 -0.917043 0.139579 -3.53363 
286 0.426058 4.30791 -10.2141 -3.45006 -4.73541 -3.2479 -0.129968 -0.919593 0.115563 -3.53363 
287 0.680529 6.46591 -11.4902 -2.86393 -4.35153 -2.8175 -0.161902 -1.34581 0.189468 -3.53374 
288 2.58654 4.77708 -11.4918 -2.82647 -3.54622 -2.65742 -0.369876 -0.78173 0.10056 -3.53335 
289 0.601839 6.47429 -8.93654 -2.83977 -4.3471 -2.8379 -0.145547 -1.34848 0.157825 -3.53377 
290 4.48227 3.06806 -11.4901 -3.4979 -2.86994 -2.66005 -0.440792 -0.126752 0.795593 -3.53334 
291 2.33565 2.62422 -10.2141 -3.45553 -3.51804 -2.98753 -0.404501 -0.298024 0.28177 -3.52981 
292 2.30363 2.65272 -7.66007 -3.43699 -3.52281 -3.01506 -0.409375 -0.306609 0.271744 -3.52982 
293 2.52849 4.80868 -8.93767 -2.8012 -3.54815 -2.6864 -0.368259 -0.787468 0.0804257 -3.53335 
294 4.44501 3.12262 -8.93598 -3.47528 -2.8694 -2.68781 -0.455671 -0.146394 0.786513 -3.53335 
295 0.373537 4.31314 -7.6603 -3.43127 -4.73742 -3.27169 -0.115919 -0.922378 0.0937879 -3.53364 
296 0.320879 4.31769 -5.10689 -3.4159 -4.73927 -3.28763 -0.101691 -0.925202 0.0736868 -3.53364 
297 0.522928 6.48161 -6.38332 -2.81947 -4.34437 -2.85176 -0.129021 -1.35138 0.12857 -3.53379 
298 2.4699 4.83949 -6.38405 -2.77902 -3.55169 -2.70706 -0.36479 -0.792448 0.0619095 -3.53335 
299 0.443813 6.48787 -3.8304 -2.80178 -4.34315 -2.86025 -0.112428 -1.35401 0.101011 -3.5338 
300 4.40692 3.17667 -6.38236 -3.45437 -2.87235 -2.70726 -0.468658 -0.164379 0.778693 -3.53335 
301 2.27117 2.6808 -5.10649 -3.41992 -3.52883 -3.03399 -0.412756 -0.314479 0.262652 -3.52983 
302 2.23828 2.70846 -2.5532 -3.40399 -3.53592 -3.04565 -0.414958 -0.321748 0.254185 -3.52983 
303 2.41081 4.86949 -3.83076 -2.75918 -3.55665 -2.72079 -0.359838 -0.796731 0.0445247 -3.53336 
304 4.36802 3.23021 -3.82907 -3.43491 -2.87826 -2.71974 -0.48004 -0.181141 0.771686 -3.53336 
305 0.268094 4.32157 -2.55376 -3.40297 -4.74097 -3.29691 -0.0874679 -0.927653 0.0547018 -3.53365 
306 0.36453 6.4931 -1.27767 -2.78609 -4.34324 -2.864 -0.0957009 -1.35579 0.0744994 -3.53381 
307 2.35123 4.8987 -1.27769 -2.74114 -3.56292 -2.72839 -0.353542 -0.80023 0.0278829 -3.53336 
308 4.32835 3.28324 -1.27599 -3.41662 -2.88681 -2.72609 -0.489927 -0.196981 0.76512 -3.53336 
309 2.43623 7.09098 -0.00152899 -2.21619 -3.3601 -2.40118 -0.317245 -1.20572 -0.187867 -3.5329 
310 0.43448 8.66815 -0.00180019 -2.24772 -4.01605 -2.49639 -0.0993854 -1.74218 0.0832332 -3.53357 