ITEM: TIMESTEP
1061
ITEM: NUMBER OF ATOMS
37664
ITEM: BOX BOUNDS ff ff ff
-100 100
-100 100
-156.15 156.15
ITEM: ATOMS id x y z v_peratom_sxx v_peratom_syy v_peratom_szz v_peratom_sxy v_peratom_sxz v_peratom_syz c_atomPE 
1 -0.00365783 -0.00219297 0.0010489 -5.1791 -5.17176 -9.53859 0.000303623 -0.0114314 -0.0276285 -3.51528 
2 -0.00396547 -0.00208097 2.5543 -5.17841 -5.17098 -9.53768 -0.000120677 -0.0136939 -0.0264504 -3.51527 
3 -0.00430157 -0.00191363 5.10761 -5.1732 -5.16608 -9.52703 -0.000805245 -0.0140608 -0.0252132 -3.51532 
4 -0.00465207 -0.00169581 7.66112 -5.16265 -5.15645 -9.50515 -0.00173555 -0.011989 -0.024059 -3.51541 
5 -0.00499164 -0.00144225 10.215 -5.14579 -5.14122 -9.4699 -0.00281592 -0.00735278 -0.0229838 -3.51557 
6 -0.00528707 -0.00117342 12.7694 -5.12157 -5.11926 -9.41866 -0.0038889 -0.000529046 -0.021836 -3.5158 
7 -0.00550366 -0.000909723 15.3246 -5.08867 -5.08899 -9.34823 -0.0047855 0.00768143 -0.020398 -3.51612 
8 -0.0056125 -0.000666694 17.8809 -5.04525 -5.04825 -9.25475 -0.00537791 0.0162612 -0.0184963 -3.51655 
9 -0.00559607 -0.000452826 20.4386 -4.98864 -4.99401 -9.13354 -0.00560984 0.0242166 -0.0160836 -3.5171 
10 -0.00545067 -0.000270097 22.998 -4.91494 -4.92217 -8.97915 -0.00549924 0.0307666 -0.0132659 -3.5178 
11 -0.00518566 -0.000116334 25.5597 -4.81889 -4.82731 -8.78596 -0.00512069 0.0354465 -0.0102801 -3.51866 
12 -0.00482027 1.18525e-05 28.124 -4.69412 -4.70306 -8.54982 -0.00457819 0.0381249 -0.00743589 -3.51969 
13 -0.00437882 0.000116741 30.6914 -4.53464 -4.54353 -8.27117 -0.0039767 0.0389587 -0.0050363 -3.52089 
14 -0.00388585 0.000198549 33.262 -4.3387 -4.34714 -7.95877 -0.00339938 0.0383097 -0.00329787 -3.5222 
15 -0.00336179 0.000255839 35.8358 -4.11403 -4.12176 -7.63011 -0.00289564 0.0366485 -0.0022992 -3.52347 
16 -0.00282053 0.000286437 38.4125 -3.87662 -3.88352 -7.30356 -0.00248104 0.0344538 -0.00198689 -3.52458 
17 -0.0022683 0.000287794 40.9917 -3.63803 -3.64405 -6.98559 -0.00214374 0.0321396 -0.00223592 -3.52548 
18 -0.00170127 0.000256875 43.5731 -3.39923 -3.40437 -6.66343 -0.00184891 0.0300976 -0.00290338 -3.5262 
19 -0.00110155 0.000189803 46.1569 -3.13501 -3.13916 -6.30032 -0.00152621 0.028703 -0.00383628 -3.52695 
20 -0.000439749 7.86072e-05 48.7435 -2.75181 -2.75402 -5.86094 -0.00084778 0.0277776 -0.00498099 -3.52782 
21 5.95933e-07 -4.11185e-08 51.3317 -1.92305 -1.92289 -4.91972 7.95086e-05 -0.00140148 0.000245978 -3.53203 
22 4.01304e-07 -1.42881e-06 53.9138 -0.851923 -0.851932 -8.91778 7.5663e-07 -2.99319e-05 -7.1425e-05 -3.48169 
23 8.71386e-07 -1.98378e-06 56.3885 1.68558 1.68559 1.87686 -1.64324e-05 2.4951e-05 -1.31841e-07 -2.55581 
24 -1.23087e-07 -1.12453e-06 -53.8876 -2.60692 -2.60694 -6.54958 -1.86665e-05 1.03076e-05 -3.2847e-05 -3.40183 
25 1.02659e-07 -1.55837e-06 -51.3239 -2.07916 -2.07935 -5.57951 -0.000270315 0.000637792 0.00144666 -3.52873 
26 -0.000161731 -0.000411395 -48.7462 -2.69468 -2.69195 -6.14778 0.00354686 -0.0102685 -0.0256953 -3.5264 
27 -0.000376429 -0.000990434 -46.1646 -3.02189 -3.01703 -6.34784 0.00627192 -0.00842131 -0.0240289 -3.52678 
28 -0.000532976 -0.00143152 -43.5822 -3.3036 -3.29688 -6.60828 0.00686645 -0.00498685 -0.0227918 -3.52635 
29 -0.000632858 -0.00176818 -41.0007 -3.55935 -3.55056 -6.89677 0.00675867 -0.001189 -0.0219591 -3.52574 
30 -0.000695353 -0.00201943 -38.421 -3.80999 -3.79914 -7.20573 0.00617196 0.00263023 -0.0213676 -3.52491 
31 -0.000742933 -0.00219695 -35.8434 -4.05673 -4.04407 -7.53108 0.00522605 0.0061203 -0.0209344 -3.52384 
32 -0.000798757 -0.00231105 -33.2686 -4.29011 -4.27614 -7.86165 0.00406063 0.00890886 -0.0206851 -3.52261 
33 -0.000883347 -0.00237342 -30.6969 -4.49705 -4.48242 -8.17978 0.00285031 0.0107127 -0.0206996 -3.52132 
34 -0.00101064 -0.00239703 -28.1284 -4.66897 -4.65441 -8.46833 0.00177116 0.0114387 -0.0210506 -3.5201 
35 -0.00118526 -0.00239463 -25.5629 -4.80493 -4.79105 -8.71674 0.000953074 0.0112149 -0.0217542 -3.51901 
36 -0.00140216 -0.00237711 -23.0002 -4.90897 -4.89622 -8.92206 0.000447814 0.0103278 -0.0227546 -3.5181 
37 -0.00164889 -0.00235282 -20.4399 -4.98703 -4.97562 -9.08671 0.000226923 0.00909162 -0.023948 -3.51736 
38 -0.00190971 -0.00232798 -17.8814 -5.04492 -5.03484 -9.21576 0.000208023 0.00771175 -0.0252192 -3.51678 
39 -0.00217035 -0.00230733 -15.3245 -5.08755 -5.07865 -9.31503 0.000294373 0.0062068 -0.0264627 -3.51632 
40 -0.00242169 -0.00229411 -12.7687 -5.11875 -5.11078 -9.39003 0.000408664 0.00442406 -0.0275782 -3.51597 
41 -0.00266158 -0.00228892 -10.2138 -5.14141 -5.13406 -9.44558 0.000507025 0.00214255 -0.0284542 -3.51572 
42 -0.0028947 -0.00228788 -7.65954 -5.1576 -5.15059 -9.48563 0.000570785 -0.000782112 -0.0289665 -3.51553 
43 -0.0031307 -0.00228151 -5.10574 -5.16879 -5.16183 -9.51323 0.000584634 -0.00428851 -0.0290077 -3.5154 
44 -0.0033815 -0.00225532 -2.55226 -5.17584 -5.16873 -9.5305 0.000515241 -0.00803922 -0.0285385 -3.51532 
45 0.0924551 2.15788 1.27692 -4.05636 -5.14035 -3.83751 -0.0511184 -0.452302 0.00380918 -3.52907 
46 0.0657716 2.15902 3.83011 -4.05012 -5.13948 -3.8317 -0.0397918 -0.452512 -0.00535328 -3.52908 
47 0.0390856 2.15987 6.38343 -4.04457 -5.13628 -3.81754 -0.028428 -0.451095 -0.0149382 -3.5291 
48 0.0124496 2.16042 8.93703 -4.04049 -5.13053 -3.79379 -0.0167922 -0.448115 -0.0251959 -3.52913 
49 -0.0140807 2.16064 11.4911 -4.03892 -5.12186 -3.75881 -0.00471917 -0.443976 -0.0363069 -3.52918 
50 -0.0404558 2.16051 14.0458 -4.0408 -5.10953 -3.71053 0.00776801 -0.439286 -0.0484535 -3.52922 
51 -0.0666399 2.16001 16.6015 -4.04661 -5.09231 -3.64632 0.0204042 -0.43467 -0.0618882 -3.52928 
52 -0.0926153 2.15915 19.1583 -4.05603 -5.06828 -3.56287 0.0327007 -0.430614 -0.0769478 -3.52935 
53 -0.118382 2.15793 21.7168 -4.06757 -5.03453 -3.4561 0.0440073 -0.427392 -0.0939755 -3.52943 
54 -0.143956 2.15636 24.2771 -4.07801 -4.98679 -3.32137 0.0535944 -0.425051 -0.113105 -3.52953 
55 -0.169362 2.15449 26.8399 -4.08153 -4.9191 -3.15433 0.0607612 -0.423445 -0.133859 -3.52967 
56 -0.19463 2.15238 29.4055 -4.06867 -4.82373 -2.95249 0.0650114 -0.42228 -0.154582 -3.52986 
57 -0.219784 2.15012 31.9742 -4.0261 -4.69255 -2.71796 0.0663383 -0.421154 -0.172138 -3.53012 
58 -0.244827 2.1478 34.5463 -3.93997 -4.52116 -2.45971 0.0655372 -0.419564 -0.18303 -3.53047 
59 -0.269738 2.14548 37.1216 -3.80471 -4.31496 -2.19197 0.0641641 -0.416925 -0.186976 -3.53087 
60 -0.294475 2.14307 39.6995 -3.6286 -4.08861 -1.92622 0.0637873 -0.412764 -0.189012 -3.53128 
61 -0.319014 2.1405 42.2798 -3.42356 -3.85287 -1.66275 0.0651231 -0.407177 -0.195233 -3.53164 
62 -0.343391 2.13767 44.8621 -3.19606 -3.60459 -1.39022 0.0674174 -0.400731 -0.212208 -3.53193 
63 -0.367766 2.13483 47.4464 -2.91616 -3.29363 -1.10603 0.0673389 -0.395856 -0.231647 -3.53223 
64 -0.392512 2.13371 50.032 -2.43439 -2.80056 -0.495153 0.0605383 -0.414719 -0.201055 -3.53323 
65 -0.418483 2.1304 52.6263 -1.76578 -2.00551 -0.561404 0.0455016 -0.308928 -0.730011 -3.52457 
66 -0.44812 2.14653 55.1778 6.9766 7.73843 2.43089 0.0330184 -0.597321 1.77021 -3.02528 
67 0.649859 2.05055 -55.162 1.38945 0.842395 -0.678343 -0.188252 -0.0991976 1.20762 -3.26036 
68 0.633027 2.08274 -52.6122 -1.11196 -2.21867 -0.457719 -0.374492 -0.489286 -0.16148 -3.53566 
69 0.607028 2.08678 -50.0319 -2.00266 -2.55489 -0.871473 -0.170211 -0.429363 0.0815518 -3.53399 
70 0.58134 2.08836 -47.4532 -2.63791 -3.07125 -1.20663 -0.127127 -0.402971 0.155615 -3.5329 
71 0.556552 2.09194 -44.8711 -3.05931 -3.44054 -1.36668 -0.10688 -0.397347 0.199067 -3.53225 
72 0.531948 2.09627 -42.2892 -3.3583 -3.72604 -1.59566 -0.0984167 -0.401075 0.210679 -3.53183 
73 0.507234 2.10082 -39.7085 -3.60205 -3.98203 -1.84634 -0.0972983 -0.406432 0.216635 -3.53141 
74 0.482314 2.10545 -37.1298 -3.80441 -4.22008 -2.11003 -0.101764 -0.411352 0.220152 -3.53097 
75 0.457186 2.11016 -34.5537 -3.96221 -4.4351 -2.37955 -0.110161 -0.415468 0.218891 -3.53055 
76 0.431879 2.11496 -31.9806 -4.07115 -4.61731 -2.64283 -0.120156 -0.41909 0.210143 -3.53018 
77 0.406421 2.11979 -29.4108 -4.13456 -4.76146 -2.88616 -0.129213 -0.422511 0.193899 -3.52988 
78 0.380825 2.12455 -26.8442 -4.16282 -4.86968 -3.09948 -0.135478 -0.425763 0.172747 -3.52965 
79 0.355098 2.12914 -24.2805 -4.16785 -4.94833 -3.27857 -0.13814 -0.428751 0.149754 -3.52948 
80 0.329247 2.13348 -21.7193 -4.15957 -5.00462 -3.42398 -0.137213 -0.431404 0.127185 -3.52936 
81 0.303285 2.13752 -19.1602 -4.145 -5.0448 -3.53908 -0.133155 -0.433738 0.106292 -3.52927 
82 0.277224 2.14124 -16.6028 -4.12859 -5.07365 -3.62832 -0.126575 -0.435864 0.0875647 -3.52921 
83 0.251076 2.14463 -14.0466 -4.11289 -5.0946 -3.69626 -0.118067 -0.43796 0.0710388 -3.52916 
84 0.224848 2.14766 -11.4914 -4.09912 -5.10999 -3.74698 -0.108155 -0.440209 0.0565318 -3.52912 
85 0.198538 2.15035 -8.93701 -4.0876 -5.12136 -3.78393 -0.0972878 -0.442729 0.0437787 -3.5291 
86 0.172144 2.1527 -6.3831 -4.07808 -5.12966 -3.80985 -0.0858582 -0.445497 0.032483 -3.52908 
87 0.145662 2.15473 -3.82957 -4.07007 -5.13545 -3.82672 -0.0742035 -0.4483 0.0223144 -3.52907 
88 0.119094 2.15645 -1.27627 -4.06297 -5.13899 -3.83578 -0.0625798 -0.450738 0.012895 -3.52906 
89 0.215425 4.32455 -0.000167892 -3.39679 -4.74666 -3.30058 -0.0738902 -0.932614 0.0381221 -3.53364 
90 0.285224 6.49698 1.27574 -2.7766 -4.34863 -2.86383 -0.0792706 -1.36037 0.0489829 -3.53381 
91 2.20519 2.73546 0.00042595 -3.39198 -3.54836 -3.05209 -0.416438 -0.329111 0.248157 -3.52982 
92 2.17135 2.76217 2.55357 -3.37646 -3.55685 -3.05089 -0.416421 -0.335399 0.240235 -3.52983 
93 2.29131 4.92679 1.27597 -2.72851 -3.57414 -2.73154 -0.34625 -0.805452 0.0122935 -3.53335 
94 4.28803 3.33543 1.27761 -3.40194 -2.902 -2.72837 -0.498856 -0.212927 0.760454 -3.53335 
95 0.162288 4.327 2.5528 -3.38575 -4.74719 -3.29787 -0.0593938 -0.932882 0.0199741 -3.53365 
96 0.109149 4.32879 5.10583 -3.37724 -4.74733 -3.28887 -0.0445163 -0.931303 0.00148784 -3.53366 
97 0.205598 6.50005 3.82843 -2.76425 -4.35009 -2.85835 -0.0613676 -1.35897 0.0229943 -3.53382 
98 2.23074 4.95429 3.82901 -2.71253 -3.58252 -2.72738 -0.336808 -0.806937 -0.00372242 -3.53335 
99 0.126067 6.5021 6.38124 -2.75722 -4.35282 -2.84801 -0.0427063 -1.35616 -0.00357441 -3.53383 
100 4.24674 3.3873 3.83069 -3.38475 -2.91487 -2.72316 -0.505345 -0.227617 0.753898 -3.53336 
101 2.13716 2.78843 5.10681 -3.3616 -3.56652 -3.04303 -0.414884 -0.340796 0.232386 -3.52983 
102 2.10267 2.8142 7.66027 -3.34811 -3.5777 -3.02763 -0.411303 -0.34544 0.224435 -3.52983 
103 2.16987 4.98095 6.38221 -2.69957 -3.59254 -2.71679 -0.325222 -0.807356 -0.0198332 -3.53336 
104 4.20479 3.43856 6.38393 -3.36922 -2.93049 -2.71171 -0.509479 -0.241814 0.747101 -3.53336 
105 0.0560916 4.32993 7.65906 -3.37285 -4.74727 -3.27292 -0.0289993 -0.928136 -0.0177326 -3.53368 
106 0.00319789 4.33038 10.2126 -3.37437 -4.74709 -3.24907 -0.0127317 -0.924001 -0.0380635 -3.53369 
107 0.0467352 6.50311 8.93432 -2.75758 -4.35717 -2.83234 -0.0233193 -1.3527 -0.031257 -3.53383 
108 2.10877 5.00672 8.93568 -2.69111 -3.60438 -2.69892 -0.311171 -0.807183 -0.0364974 -3.53336 
109 -0.032317 6.50305 11.4878 -2.76691 -4.36339 -2.81061 -0.00343723 -1.34945 -0.060641 -3.53382 
110 4.16222 3.48917 8.93747 -3.35625 -2.94918 -2.69317 -0.510769 -0.255895 0.739886 -3.53336 
111 2.06791 2.83946 10.2141 -3.33693 -3.59055 -3.0034 -0.405173 -0.349682 0.216142 -3.52983 
112 2.03295 2.86417 12.7685 -3.32905 -3.60493 -2.96866 -0.396126 -0.354084 0.207154 -3.52982 
113 2.04752 5.03158 11.4896 -2.68858 -3.618 -2.67268 -0.294511 -0.807111 -0.0543251 -3.53336 
114 4.11908 3.5391 11.4914 -3.34674 -2.97115 -2.66633 -0.508795 -0.270418 0.731991 -3.53336 
115 -0.0494673 4.33013 12.7668 -3.38329 -4.7467 -3.21604 0.00417085 -0.919651 -0.059926 -3.5337 
116 -0.101862 4.32915 15.3217 -3.40055 -4.74563 -3.17207 0.0213688 -0.915744 -0.0838335 -3.53371 
117 -0.111042 6.5019 14.0419 -2.78608 -4.3715 -2.78168 0.0165603 -1.34712 -0.0924042 -3.5338 
118 1.98614 5.05549 14.0442 -2.69305 -3.63312 -2.6366 -0.275265 -0.807933 -0.0740764 -3.53336 
119 -0.189423 6.49964 16.5968 -2.81533 -4.3812 -2.74381 0.0362205 -1.34613 -0.127317 -3.53376 
120 4.07538 3.58831 14.0461 -3.34146 -2.99643 -2.62963 -0.503237 -0.286099 0.723015 -3.53336 
121 1.99781 2.88831 15.3237 -3.3252 -3.62034 -2.92132 -0.383968 -0.359349 0.196985 -3.52981 
122 1.9625 2.91186 17.8799 -3.32557 -3.63583 -2.85881 -0.368651 -0.366217 0.185033 -3.52979 
123 1.92466 5.07843 16.5996 -2.70513 -3.64911 -2.58881 -0.253565 -0.810415 -0.0966206 -3.53335 
124 4.03116 3.63677 16.6015 -3.34088 -3.02477 -2.58104 -0.493853 -0.303769 0.712392 -3.53336 
125 -0.15397 4.32745 17.8776 -3.42632 -4.74292 -3.1147 0.0383574 -0.912695 -0.110388 -3.53371 
126 -0.205792 4.32501 20.4347 -3.45994 -4.73683 -3.04062 0.0545392 -0.91062 -0.140197 -3.5337 
127 -0.267463 6.49626 19.1527 -2.85426 -4.39165 -2.69443 0.0550907 -1.3465 -0.166192 -3.53371 
128 1.86308 5.10036 19.1561 -2.72483 -3.66497 -2.52686 -0.229591 -0.815212 -0.122856 -3.53334 
129 -0.345176 6.49178 21.7099 -2.90191 -4.40118 -2.62999 0.0727691 -1.34794 -0.209734 -3.53364 
130 3.98641 3.68445 19.158 -3.34494 -3.05561 -2.51815 -0.480459 -0.324295 0.699395 -3.53334 
131 1.92703 2.93481 20.4374 -3.32963 -3.64984 -2.77801 -0.350229 -0.375365 0.170639 -3.52976 
132 1.8914 2.95715 22.9967 -3.33572 -3.65995 -2.67533 -0.328855 -0.387282 0.153231 -3.52973 
133 1.80138 5.12127 21.7141 -2.75143 -3.67909 -2.44772 -0.203545 -0.822828 -0.153563 -3.53331 
134 3.94111 3.73132 21.716 -3.35292 -3.0878 -2.43806 -0.46294 -0.348471 0.68321 -3.53332 
135 -0.257346 4.32187 22.9936 -3.49966 -4.72453 -2.94565 0.0692755 -0.909364 -0.173668 -3.5337 
136 -0.308657 4.31806 25.5544 -3.54197 -4.70147 -2.82484 0.0819083 -0.908597 -0.210618 -3.5337 
137 -0.422579 6.48623 24.2687 -2.95639 -4.4068 -2.54576 0.0889153 -1.34983 -0.258229 -3.53357 
138 1.73957 5.14117 24.2738 -2.78322 -3.68891 -2.34787 -0.17572 -0.833552 -0.189134 -3.53328 
139 -0.499687 6.47969 26.8296 -3.01415 -4.40352 -2.43597 0.103204 -1.35144 -0.311003 -3.53351 
140 3.89528 3.77736 24.2756 -3.36305 -3.11926 -2.33752 -0.441354 -0.376824 0.6631 -3.53329 
141 1.85559 2.97889 25.558 -3.34048 -3.66228 -2.54694 -0.304867 -0.40205 0.132596 -3.52968 
142 1.81963 3.00008 28.1218 -3.33789 -3.65085 -2.38952 -0.279015 -0.418957 0.109394 -3.52962 
143 1.67762 5.16008 26.8357 -2.81679 -3.69043 -2.2236 -0.146687 -0.847312 -0.229087 -3.53323 
144 3.84893 3.82258 26.8375 -3.37192 -3.14631 -2.21315 -0.416169 -0.409216 0.638761 -3.53324 
145 -0.359757 4.31368 28.1177 -3.58048 -4.66084 -2.67327 0.0917731 -0.907927 -0.249645 -3.53373 
146 -0.410673 4.30887 30.684 -3.60431 -4.59307 -2.48758 0.0982836 -0.906955 -0.287431 -3.53381 
147 -0.576515 6.47232 29.393 -3.06865 -4.38335 -2.29442 0.115208 -1.35206 -0.365612 -3.53348 
148 1.61557 5.17813 29.4002 -2.84585 -3.67749 -2.07178 -0.117618 -0.8633 -0.271295 -3.53318 
149 -0.653074 6.4644 31.9595 -3.10839 -4.3344 -2.11632 0.124269 -1.35119 -0.417095 -3.5335 
150 3.80214 3.86703 29.4019 -3.3734 -3.16265 -2.06185 -0.388614 -0.444168 0.610954 -3.53318 
151 1.78357 3.02083 30.6886 -3.3182 -3.61684 -2.20155 -0.25278 -0.435946 0.0858857 -3.52957 
152 1.74754 3.0413 33.2586 -3.26774 -3.54909 -1.98521 -0.228536 -0.44935 0.0663215 -3.52956 
153 1.55348 5.19554 31.9678 -2.85955 -3.64107 -1.89087 -0.090613 -0.879276 -0.311121 -3.53312 
154 3.75508 3.91086 31.9692 -3.35728 -3.15825 -1.88179 -0.36099 -0.478017 0.582361 -3.53311 
155 -0.461417 4.30387 33.2536 -3.59726 -4.48679 -2.26895 0.10121 -0.905143 -0.318783 -3.53397 
156 -0.511962 4.29887 35.8266 -3.54127 -4.33307 -2.02606 0.101142 -0.901518 -0.339117 -3.53423 
157 -0.729358 6.45632 34.5294 -3.11547 -4.24115 -1.90197 0.129582 -1.34827 -0.458351 -3.53363 
158 1.4915 5.21265 34.5386 -2.84146 -3.5691 -1.68264 -0.0686024 -0.890919 -0.3415 -3.53309 
159 -0.805309 6.44846 37.103 -3.06836 -4.08889 -1.66155 0.130863 -1.34193 -0.48365 -3.53389 
160 3.70805 3.95431 34.54 -3.30816 -3.11911 -1.67413 -0.336478 -0.504834 0.55799 -3.53308 
161 1.7117 3.06171 35.832 -3.17226 -3.43755 -1.74772 -0.208941 -0.455192 0.0552841 -3.52962 
162 1.67619 3.08217 38.4085 -3.026 -3.28042 -1.4999 -0.195099 -0.452975 0.0524613 -3.52978 
163 1.42989 5.22988 37.1129 -2.77238 -3.44881 -1.45399 -0.0542428 -0.892861 -0.35641 -3.53314 
164 3.66142 3.99766 37.1141 -3.2077 -3.03089 -1.44556 -0.317872 -0.519112 0.543049 -3.53313 
165 -0.562234 4.29395 38.4028 -3.42723 -4.13423 -1.77413 0.0997734 -0.894823 -0.349907 -3.53458 
166 -0.612142 4.28895 40.9816 -3.26257 -3.90635 -1.52563 0.0993491 -0.884456 -0.360095 -3.53492 
167 -0.880801 6.44091 39.6798 -2.95526 -3.87723 -1.41504 0.129385 -1.33036 -0.496026 -3.53425 
168 1.36886 5.2474 39.6902 -2.64162 -3.27551 -1.21681 -0.047896 -0.883738 -0.359036 -3.53331 
169 -0.955727 6.43339 42.259 -2.78448 -3.62632 -1.18029 0.127884 -1.31347 -0.508198 -3.53461 
170 3.61542 4.04107 39.6913 -3.04551 -2.88854 -1.20848 -0.305566 -0.521977 0.536193 -3.5333 
171 1.64104 3.1026 40.9876 -2.83722 -3.08661 -1.24951 -0.185315 -0.447866 0.0499147 -3.53 
172 1.60614 3.12286 43.5687 -2.61589 -2.86429 -0.994252 -0.177054 -0.446341 0.0394088 -3.53027 
173 1.30846 5.26508 42.2698 -2.45555 -3.05842 -0.98124 -0.0467235 -0.869969 -0.363724 -3.53355 
174 3.57001 4.08445 42.2709 -2.82894 -2.70055 -0.974681 -0.297365 -0.523169 0.526604 -3.53354 
175 -0.66167 4.28367 43.5624 -3.05845 -3.65995 -1.28016 0.101052 -0.871214 -0.378016 -3.53523 
176 -0.710989 4.2781 46.1447 -2.82684 -3.39336 -1.01799 0.10412 -0.857282 -0.408939 -3.53549 
177 -1.03015 6.42569 44.8395 -2.56315 -3.34338 -0.964247 0.127785 -1.29352 -0.525337 -3.53495 
178 1.24856 5.28276 44.851 -2.22145 -2.80252 -0.748858 -0.0489582 -0.859982 -0.381909 -3.53386 
179 -1.10443 6.41816 47.4204 -2.2985 -3.01768 -0.779328 0.13 -1.27514 -0.537455 -3.53528 
180 3.52498 4.12774 44.852 -2.56335 -2.47448 -0.74993 -0.290613 -0.53155 0.505771 -3.53383 
181 1.57129 3.14294 46.1516 -2.36657 -2.61628 -0.716657 -0.16993 -0.455896 0.0127698 -3.53054 
182 1.53636 3.16327 48.7364 -2.09018 -2.36097 -0.345944 -0.18272 -0.478767 -0.0257049 -3.53015 
183 1.1887 5.30045 47.4331 -1.94588 -2.50561 -0.517972 -0.0628557 -0.866559 -0.426425 -3.53411 
184 3.48005 4.171 47.4338 -2.24254 -2.22061 -0.541843 -0.285303 -0.5579 0.462431 -3.53403 
185 -0.760608 4.27328 48.7285 -2.60409 -3.07517 -0.672101 0.0974618 -0.849719 -0.413022 -3.53515 
186 -0.811621 4.26877 51.3169 -1.98849 -2.35115 0.31047 0.0838808 -0.841703 -0.65345 -3.53805 
187 -1.17889 6.41384 50.0002 -2.05973 -2.54266 -0.336626 0.0873705 -1.28007 -0.616622 -3.53572 
188 1.12775 5.31799 50.0156 -1.56907 -2.07879 -0.020612 -0.110967 -0.945821 -0.595037 -3.53485 
189 -1.25707 6.40546 52.5877 -1.61234 -2.48688 0.643305 0.17576 -1.31617 -0.613143 -3.53282 
190 3.43505 4.21346 50.0156 -1.75822 -1.85271 -0.0377299 -0.309213 -0.668223 0.314403 -3.53491 
191 1.50027 3.18358 51.3264 -1.43157 -1.70132 0.658635 -0.172625 -0.54836 -0.13337 -3.53273 
192 1.46587 3.20964 53.9052 0.0267002 0.953991 -0.795875 0.566307 -0.560986 0.138968 -3.37565 
193 1.06597 5.33731 52.6041 -1.24922 -1.89855 0.441461 -0.236973 -0.801324 -0.41082 -3.52779 
194 3.38747 4.26008 52.6041 -1.41016 -1.71357 0.389811 -0.390655 -0.639441 0.587326 -3.52746 
195 -0.866323 4.2769 53.8949 -0.0508671 -0.206143 -1.18049 0.0793793 -1.26166 1.02744 -3.38132 
196 1.3298 4.1174 -56.3442 5.06942 2.90558 1.60242 -1.25473 -0.273891 0.110265 -2.79034 
197 -1.33605 6.40133 55.1665 4.18004 2.79746 1.28995 0.31992 -1.5232 0.197888 -3.26107 
198 1.00488 5.36129 55.1754 5.6421 6.63186 2.70775 0.36987 -0.636457 -0.0326068 -3.15047 
199 1.98371 6.26223 -55.1334 6.93989 9.11553 2.92918 0.134186 -0.847908 -0.52566 -3.02309 
200 3.34328 4.30996 55.1754 5.53065 7.35769 2.86912 0.118701 -0.27862 0.562642 -3.15115 
201 2.87095 2.09325 -56.362 4.04253 6.0065 1.88101 -3.16453 0.252648 0.341793 -2.79939 
202 2.84551 2.1252 -53.8874 0.165026 0.763307 -3.02645 -0.982107 -0.732814 -0.162364 -3.51266 
203 3.53831 4.21674 -55.1525 6.03166 6.27392 1.75936 0.302437 -1.2195 -0.0444711 -3.1433 
204 5.07312 2.13635 -55.1525 6.04997 7.03887 2.00315 0.446064 -0.528118 0.0805391 -3.14511 
205 1.29262 4.16451 -53.8815 0.861271 -0.348221 -3.67504 -0.408872 -0.573882 0.839001 -3.51412 
206 1.24176 4.17585 -51.3147 -1.28679 -1.91098 -0.373688 -0.214932 -0.880584 0.220126 -3.53903 
207 1.90264 6.26187 -52.5941 -0.917828 -1.45679 -0.573002 -0.184179 -1.16804 0.819996 -3.52792 
208 3.4607 4.22944 -52.6036 -0.748885 -0.925835 0.0954309 -0.677537 -0.496073 0.191363 -3.53019 
209 1.82403 6.27282 -50.0101 -1.64251 -2.32535 -0.262173 -0.200409 -1.28153 0.433136 -3.53673 
210 5.01221 2.17771 -52.6036 -1.34185 -0.348573 0.0546069 -0.502578 0.0191957 0.991503 -3.52952 
211 2.80522 2.14769 -51.32 -1.10368 -0.94687 -0.112726 -0.278082 -0.333027 0.261769 -3.53414 
212 2.77226 2.17461 -48.7405 -1.96859 -1.83662 -0.545607 -0.291649 -0.223268 0.338235 -3.53087 
213 3.40036 4.25787 -50.02 -1.43137 -1.65385 -0.138958 -0.408385 -0.70865 0.286464 -3.53496 
214 4.971 2.23184 -50.02 -1.84416 -1.27395 -0.113732 -0.296367 0.0210643 0.836055 -3.535 
215 1.18966 4.18043 -48.7355 -2.178 -2.75554 -0.785686 -0.180431 -0.849919 0.284362 -3.5364 
216 1.13973 4.18652 -46.154 -2.63711 -3.19122 -0.973883 -0.165289 -0.833517 0.402295 -3.53604 
217 1.74859 6.27866 -47.4305 -2.10035 -2.8328 -0.673242 -0.21376 -1.24107 0.546535 -3.53588 
218 3.34501 4.2875 -47.4411 -1.89802 -2.20781 -0.561518 -0.301256 -0.639085 0.336133 -3.53414 
219 1.67465 6.29045 -44.8494 -2.46975 -3.191 -0.861782 -0.201153 -1.24462 0.604804 -3.53533 
220 4.93481 2.28446 -47.4403 -2.32175 -1.78818 -0.540807 -0.212396 0.106072 0.865087 -3.53419 
221 2.74199 2.20191 -46.1593 -2.36454 -2.2678 -0.738885 -0.232073 -0.161158 0.392827 -3.53074 
222 2.71361 2.23054 -43.5775 -2.6769 -2.59065 -0.95042 -0.216281 -0.149768 0.412956 -3.53037 
223 3.29149 4.31968 -44.8604 -2.23387 -2.57302 -0.716842 -0.260945 -0.625056 0.37141 -3.53392 
224 4.9019 2.33752 -44.8595 -2.65704 -2.14335 -0.722082 -0.178403 0.14349 0.896256 -3.53392 
225 1.09056 4.19505 -43.572 -2.97574 -3.51153 -1.20193 -0.153133 -0.841406 0.427503 -3.53553 
226 1.04131 4.20429 -40.9909 -3.23542 -3.78678 -1.44323 -0.151217 -0.854395 0.433852 -3.53509 
227 1.60092 6.30393 -42.2683 -2.752 -3.49749 -1.089 -0.200817 -1.26235 0.620192 -3.53483 
228 3.23891 4.35333 -42.2794 -2.50731 -2.86953 -0.916934 -0.244156 -0.627409 0.388928 -3.5336 
229 1.52673 6.31809 -39.6884 -2.96262 -3.76475 -1.33296 -0.207962 -1.28141 0.62363 -3.53438 
230 4.87052 2.39145 -42.2785 -2.94034 -2.42578 -0.927828 -0.167898 0.155142 0.921183 -3.5336 
231 2.68578 2.2599 -40.9964 -2.93287 -2.85206 -1.18088 -0.213872 -0.147769 0.426708 -3.53006 
232 2.65803 2.28984 -38.4167 -3.14641 -3.06697 -1.42337 -0.21892 -0.146948 0.438038 -3.52981 
233 3.18655 4.38802 -39.6994 -2.72457 -3.10958 -1.14095 -0.238942 -0.632295 0.399177 -3.53333 
234 4.83973 2.44635 -39.6985 -3.17721 -2.64376 -1.15176 -0.168686 0.159867 0.942669 -3.53333 
235 0.991666 4.21378 -38.4114 -3.43487 -4.03126 -1.69443 -0.156514 -0.866686 0.434757 -3.53468 
236 0.941596 4.22349 -35.8343 -3.57582 -4.24172 -1.95026 -0.166166 -0.876526 0.42925 -3.53431 
237 1.4519 6.33275 -37.1108 -3.1048 -3.98841 -1.58527 -0.21886 -1.29715 0.618354 -3.53398 
238 3.13417 4.42364 -37.1215 -2.88605 -3.29326 -1.37508 -0.242463 -0.638594 0.401282 -3.53314 
239 1.37651 6.34792 -34.5362 -3.17952 -4.15741 -1.83229 -0.229258 -1.30916 0.599375 -3.53367 
240 4.80922 2.5022 -37.1205 -3.36473 -2.80023 -1.38458 -0.179043 0.159523 0.956379 -3.53314 
241 2.63029 2.32034 -35.8394 -3.31652 -3.23583 -1.67013 -0.230859 -0.148749 0.443708 -3.52963 
242 2.60252 2.3513 -33.2649 -3.43867 -3.35654 -1.91078 -0.249472 -0.156539 0.439864 -3.52955 
243 3.08171 4.46009 -34.5463 -2.98966 -3.4193 -1.60569 -0.254038 -0.649604 0.389998 -3.53306 
244 4.77894 2.5589 -34.5453 -3.49765 -2.89726 -1.61425 -0.199106 0.149133 0.957294 -3.53306 
245 0.891168 4.23341 -33.2603 -3.65776 -4.40925 -2.19932 -0.176804 -0.884186 0.41324 -3.53401 
246 0.840457 4.24346 -30.6897 -3.68823 -4.5311 -2.42803 -0.185427 -0.890525 0.385659 -3.5338 
247 1.30067 6.36346 -31.9652 -3.19689 -4.26982 -2.05779 -0.236111 -1.31851 0.564345 -3.53349 
248 3.02904 4.49708 -31.9745 -3.0402 -3.49494 -1.82011 -0.271981 -0.666319 0.36416 -3.53307 
249 1.22444 6.37903 -29.3977 -3.17483 -4.33536 -2.25072 -0.238393 -1.32585 0.516806 -3.53342 
250 4.74871 2.61617 -31.9733 -3.57847 -2.94429 -1.82855 -0.227318 0.126264 0.945305 -3.53306 
251 2.57464 2.38256 -30.6938 -3.51433 -3.43339 -2.13405 -0.272978 -0.17098 0.426286 -3.52954 
252 2.54652 2.41388 -28.1258 -3.55205 -3.47689 -2.33154 -0.298451 -0.189714 0.406309 -3.52957 
253 2.97601 4.53419 -29.4059 -3.05017 -3.53428 -2.01004 -0.293309 -0.686356 0.328249 -3.53312 
254 4.71824 2.67368 -29.4046 -3.61763 -2.95668 -2.01885 -0.260305 0.0936985 0.924874 -3.5331 
255 0.789501 4.25342 -28.1224 -3.68193 -4.6132 -2.62675 -0.190255 -0.896007 0.349663 -3.53368 
256 0.738313 4.26308 -25.5582 -3.65405 -4.66528 -2.79191 -0.190755 -0.90069 0.309881 -3.53362 
257 1.14784 6.39423 -26.8335 -3.13088 -4.36781 -2.40777 -0.236287 -1.33123 0.46287 -3.53342 
258 2.92245 4.57103 -26.8405 -3.03377 -3.55104 -2.17212 -0.314787 -0.706711 0.288248 -3.53318 
259 1.07088 6.40876 -24.272 -3.07827 -4.37954 -2.53123 -0.230309 -1.33492 0.407965 -3.53347 
260 4.68724 2.73115 -26.8391 -3.62757 -2.9491 -2.18116 -0.294442 0.0563478 0.900992 -3.53316 
261 2.51801 2.44506 -25.561 -3.56288 -3.49867 -2.49927 -0.323156 -0.209771 0.383895 -3.52962 
262 2.48902 2.47595 -22.9988 -3.55674 -3.5081 -2.6372 -0.345272 -0.229006 0.361888 -3.52967 
263 2.86826 4.60735 -24.2778 -3.00287 -3.55548 -2.30649 -0.333894 -0.725316 0.248675 -3.53323 
264 4.65549 2.78837 -24.2763 -3.61905 -2.9325 -2.31519 -0.327076 0.0185108 0.877222 -3.53321 
265 0.686897 4.27226 -22.9967 -3.61639 -4.69681 -2.92473 -0.187185 -0.904594 0.270139 -3.5336 
266 0.635261 4.28083 -20.4373 -3.57671 -4.7153 -3.02897 -0.180169 -0.907871 0.232768 -3.5336 
267 0.993589 6.42239 -21.7127 -3.02549 -4.37977 -2.62601 -0.221038 -1.33746 0.355606 -3.53353 
268 2.81339 4.64295 -21.7174 -2.96587 -3.55431 -2.41528 -0.349203 -0.741238 0.212022 -3.53327 
269 0.915978 6.435 -19.1552 -2.97729 -4.3746 -2.69761 -0.209097 -1.33946 0.307506 -3.53359 
270 4.62285 2.84522 -21.7158 -3.6001 -2.91394 -2.4231 -0.356744 -0.0170946 0.855549 -3.53325 
271 2.45951 2.50648 -20.4388 -3.54111 -3.51164 -2.74774 -0.363928 -0.246327 0.341791 -3.52971 
272 2.42946 2.5366 -17.8807 -3.52108 -3.51321 -2.8345 -0.378955 -0.261435 0.324138 -3.52975 
273 2.75783 4.67776 -19.159 -2.92811 -3.55152 -2.50162 -0.36024 -0.754376 0.179236 -3.5333 
274 4.58926 2.90164 -19.1573 -3.57618 -2.89745 -2.50821 -0.382903 -0.0492251 0.836797 -3.53328 
275 0.58342 4.28874 -17.8797 -3.53949 -4.72605 -3.10929 -0.170438 -0.910787 0.198807 -3.5336 
276 0.531385 4.29595 -15.3234 -3.50692 -4.73247 -3.17018 -0.158702 -0.91365 0.168447 -3.53361 
277 0.838068 6.44652 -16.599 -2.93574 -4.36774 -2.75103 -0.195139 -1.34151 0.264125 -3.53365 
278 2.7016 4.71174 -16.602 -2.89259 -3.54927 -2.56896 -0.367168 -0.765102 0.150338 -3.53332 
279 0.759872 6.45694 -14.0439 -2.90116 -4.36119 -2.79039 -0.17979 -1.34401 0.225213 -3.53369 
280 4.55471 2.95758 -16.6003 -3.55072 -2.88495 -2.57421 -0.405569 -0.0776595 0.82107 -3.53331 
281 2.39888 2.56629 -15.3241 -3.49979 -3.51495 -2.9014 -0.390598 -0.274508 0.30889 -3.52977 
282 2.36779 2.59554 -12.7685 -3.47898 -3.5178 -2.95207 -0.399318 -0.285938 0.29574 -3.52979 
283 2.64472 4.74489 -14.0462 -2.86066 -3.54853 -2.62062 -0.370495 -0.773965 0.12488 -3.53333 
284 4.51922 3.01304 -14.0446 -3.52566 -2.87704 -2.62457 -0.42507 -0.102752 0.808077 -3.53332 
285 0.479164 4.30245 -12.7682 -3.47962 -4.73664 -3.21562 -0.145588 -0.916726 0.141419 -3.53361 
286 0.426762 4.30823 -10.2137 -3.45723 -4.73967 -3.24885 -0.131623 -0.920152 0.117249 -3.53362 
287 0.681393 6.46626 -11.4896 -2.87272 -4.3559 -2.81896 -0.163606 -1.34713 0.190185 -3.53373 
288 2.58722 4.7772 -11.4914 -2.83256 -3.54956 -2.65957 -0.370873 -0.78149 0.102242 -3.53334 
289 0.602635 6.47449 -8.93595 -2.849 -4.35212 -2.83919 -0.147013 -1.35078 0.158339 -3.53375 
290 4.48282 3.06802 -11.4897 -3.50192 -2.87352 -2.6623 -0.441867 -0.125097 0.797341 -3.53333 
291 2.33621 2.62436 -10.2138 -3.45943 -3.52201 -2.9897 -0.405656 -0.296145 0.284281 -3.5298 
292 2.30415 2.65276 -7.65973 -3.44125 -3.52741 -3.01686 -0.410151 -0.305457 0.274114 -3.52981 
293 2.52912 4.80871 -8.93719 -2.80785 -3.55221 -2.68829 -0.368953 -0.788058 0.0817934 -3.53334 
294 4.44553 3.12251 -8.93556 -3.47973 -2.87383 -2.68986 -0.45645 -0.145307 0.788336 -3.53334 
295 0.374178 4.31332 -7.65984 -3.4388 -4.74211 -3.27241 -0.117232 -0.923862 0.0953936 -3.53362 
296 0.321414 4.31773 -5.10638 -3.42317 -4.7441 -3.28818 -0.102727 -0.927544 0.0752947 -3.53363 
297 0.523602 6.48166 -6.38268 -2.82841 -4.34973 -2.85286 -0.130281 -1.35457 0.128967 -3.53377 
298 2.47045 4.83941 -6.38351 -2.78575 -3.55616 -2.70874 -0.365289 -0.793834 0.0629811 -3.53334 
299 0.444318 6.48779 -3.82971 -2.80966 -4.34848 -2.86116 -0.113495 -1.35787 0.101379 -3.53378 
300 4.40738 3.1765 -6.38189 -3.45892 -2.87728 -2.70915 -0.469252 -0.163893 0.780551 -3.53334 
301 2.27161 2.68075 -5.1061 -3.42419 -3.53372 -3.03552 -0.41327 -0.314052 0.264888 -3.52982 
302 2.23862 2.70831 -2.55276 -3.40787 -3.54072 -3.04701 -0.415334 -0.321962 0.256312 -3.52982 
303 2.41123 4.86933 -3.83018 -2.76542 -3.56116 -2.7223 -0.360248 -0.798777 0.0453542 -3.53334 
304 4.36839 3.23 -3.82856 -3.43915 -2.8833 -2.72152 -0.480566 -0.181217 0.773539 -3.53335 
305 0.268486 4.32147 -2.55319 -3.40934 -4.74563 -3.29737 -0.088279 -0.930667 0.0563891 -3.53363 
306 0.364832 6.49289 -1.27693 -2.79222 -4.34814 -2.86474 -0.0965649 -1.35997 0.0749225 -3.5338 
307 2.35149 4.89846 -1.27706 -2.74635 -3.56711 -2.7298 -0.35395 -0.802713 0.0285568 -3.53335 
308 4.32859 3.28299 -1.27544 -3.42018 -2.89155 -2.7278 -0.49048 -0.197511 0.766934 -3.53335 
309 2.43639 7.09067 -0.000751966 -2.22123 -3.36372 -2.40277 -0.317779 -1.20948 -0.188571 -3.53289 