ITEM: TIMESTEP
0
ITEM: NUMBER OF ATOMS
37664
ITEM: BOX BOUNDS ff ff ff
-100 100
-100 100
-156.15 156.15
ITEM: ATOMS id x y z v_peratom_sxx v_peratom_syy v_peratom_szz v_peratom_sxy v_peratom_sxz v_peratom_syz c_atomPE 
1 -0.00391573 -0.0020402 0.000952918 -5.17829 -5.16986 -9.53945 0.000854455 -0.0134246 -0.0368695 -3.51526 
2 -0.00411549 -0.00179416 2.55416 -5.17752 -5.16916 -9.53784 0.000137521 -0.0141726 -0.0361689 -3.51527 
3 -0.00432682 -0.00150742 5.10745 -5.17233 -5.16441 -9.5264 -0.000796681 -0.0135268 -0.0353967 -3.51532 
4 -0.00454358 -0.00118564 7.66096 -5.16194 -5.15503 -9.50377 -0.00194094 -0.0110437 -0.0346569 -3.51542 
5 -0.00475027 -0.000842626 10.2149 -5.14539 -5.14018 -9.46795 -0.00321491 -0.00660213 -0.0339232 -3.51558 
6 -0.0049241 -0.000496952 12.7693 -5.12158 -5.11868 -9.41639 -0.00447762 -0.000490091 -0.0330351 -3.51582 
7 -0.00503988 -0.000166988 15.3246 -5.08913 -5.08897 -9.34593 -0.00557067 0.00664556 -0.0317706 -3.51614 
8 -0.00507594 0.000133278 17.8809 -5.04616 -5.04884 -9.25272 -0.00636762 0.0139704 -0.0299539 -3.51657 
9 -0.00501895 0.000396096 20.4386 -4.98993 -4.99524 -9.13202 -0.00680574 0.0206717 -0.0275377 -3.51712 
10 -0.00486605 0.000619278 22.9982 -4.91653 -4.92401 -8.97833 -0.00689168 0.0261276 -0.0246346 -3.51781 
11 -0.00462426 0.000803841 25.5599 -4.82068 -4.82973 -8.78598 -0.00668723 0.0299972 -0.0214956 -3.51867 
12 -0.0043077 0.000951192 28.1242 -4.69601 -4.70601 -8.55075 -0.0062847 0.0322315 -0.0184498 -3.5197 
13 -0.00393373 0.00106097 30.6916 -4.53657 -4.54695 -8.27303 -0.0057806 0.0330215 -0.015823 -3.52089 
14 -0.00351899 0.0011302 33.2622 -4.34064 -4.35096 -7.96151 -0.00525364 0.0327124 -0.0138584 -3.52219 
15 -0.00307632 0.00115362 35.8361 -4.11597 -4.12591 -7.63363 -0.00475237 0.0317103 -0.0126696 -3.52346 
16 -0.00261297 0.00112445 38.4127 -3.87854 -3.88787 -7.3077 -0.00429338 0.030398 -0.0122454 -3.52457 
17 -0.00212993 0.00103456 40.9919 -3.6399 -3.64849 -6.99014 -0.00386496 0.0290823 -0.0125036 -3.52546 
18 -0.00161957 0.000873297 43.5732 -3.40107 -3.40875 -6.66818 -0.00342516 0.0280501 -0.0133698 -3.52619 
19 -0.00106178 0.000624778 46.157 -3.13695 -3.1434 -6.30496 -0.00286901 0.0275743 -0.0147962 -3.52693 
20 -0.000430155 0.000264076 48.7436 -2.75393 -2.75749 -5.8649 -0.00160141 0.027181 -0.0166822 -3.52781 
21 5.95933e-07 -4.11185e-08 51.3317 -1.92319 -1.92293 -4.92082 0.000129013 -0.00139162 0.000872111 -3.53204 
22 4.01304e-07 -1.42881e-06 53.9138 -0.851906 -0.851917 -8.9178 8.7508e-08 -2.70419e-05 -7.18438e-05 -3.48169 
23 8.71386e-07 -1.98378e-06 56.3885 1.68559 1.6856 1.87688 -1.53875e-05 2.38866e-05 -4.31009e-07 -2.55581 
24 -1.23087e-07 -1.12453e-06 -53.8876 -2.60696 -2.60698 -6.54961 -1.64826e-05 9.10185e-06 -3.25622e-05 -3.40183 
25 1.02659e-07 -1.55837e-06 -51.3239 -2.07918 -2.07925 -5.57949 -0.000385442 0.000959244 0.0021215 -3.52873 
26 -0.000249055 -0.000603346 -48.7462 -2.69416 -2.69253 -6.14783 0.00516183 -0.0157189 -0.0377146 -3.52639 
27 -0.000571481 -0.00144788 -46.1646 -3.0211 -3.01797 -6.34791 0.00915332 -0.0134934 -0.0350785 -3.52678 
28 -0.000799937 -0.00208692 -43.5822 -3.30269 -3.29783 -6.60818 0.0102457 -0.00985509 -0.0330013 -3.52635 
29 -0.0009459 -0.00257172 -41.0007 -3.55833 -3.55139 -6.89632 0.0104695 -0.00615651 -0.0315169 -3.52574 
30 -0.0010366 -0.00293238 -38.4209 -3.80882 -3.79972 -7.2048 0.0101314 -0.00271525 -0.03042 -3.52491 
31 -0.00109995 -0.00318701 -35.8434 -4.05541 -4.04431 -7.52962 0.00936786 0.000140317 -0.0295991 -3.52385 
32 -0.00116355 -0.00334976 -33.2685 -4.28868 -4.276 -7.8597 0.00831298 0.00207491 -0.0290652 -3.52262 
33 -0.00125212 -0.0034347 -30.6968 -4.49556 -4.48189 -8.17745 0.00712974 0.00287061 -0.0288828 -3.52133 
34 -0.00138346 -0.00345639 -28.1282 -4.66752 -4.65352 -8.46581 0.0059867 0.00252613 -0.0291063 -3.52011 
35 -0.00156518 -0.00342869 -25.5628 -4.80357 -4.78984 -8.71425 0.00501531 0.00128114 -0.0297326 -3.51903 
36 -0.00179387 -0.0033634 -23.0001 -4.90776 -4.89476 -8.91984 0.00427748 -0.000456773 -0.0306867 -3.51811 
37 -0.00205698 -0.00326975 -20.4397 -4.98598 -4.97395 -9.08496 0.00376024 -0.00225808 -0.0318494 -3.51737 
38 -0.00233685 -0.00315494 -17.8812 -5.04404 -5.03304 -9.21466 0.00339839 -0.00382066 -0.0330996 -3.51678 
39 -0.00261557 -0.00302507 -15.3243 -5.08682 -5.07676 -9.31465 0.00311134 -0.00505759 -0.0343379 -3.51632 
40 -0.00287914 -0.00288547 -12.7685 -5.11814 -5.10884 -9.39039 0.0028352 -0.00608988 -0.0354814 -3.51597 
41 -0.00311986 -0.00273986 -10.2137 -5.14087 -5.13212 -9.44656 0.00253642 -0.00715386 -0.0364438 -3.5157 
42 -0.00333697 -0.00258866 -7.65945 -5.15707 -5.14864 -9.48703 0.00220474 -0.00846533 -0.0371261 -3.51551 
43 -0.00353568 -0.0024277 -5.10572 -5.1682 -5.15988 -9.51476 0.00183343 -0.0100925 -0.0374372 -3.51538 
44 -0.00372516 -0.00224844 -2.5523 -5.17515 -5.16679 -9.53185 0.00139929 -0.011877 -0.0373362 -3.5153 
45 0.0922821 2.15814 1.27649 -4.0532 -5.13716 -3.83745 -0.0508094 -0.449787 -0.000663042 -3.52907 
46 0.0657557 2.1594 3.82965 -4.04837 -5.13686 -3.83126 -0.0396284 -0.449785 -0.0100964 -3.52909 
47 0.0392296 2.16035 6.38296 -4.04443 -5.13438 -3.8167 -0.0284291 -0.448498 -0.0199416 -3.52911 
48 0.0127433 2.16098 8.93657 -4.04196 -5.12947 -3.79258 -0.0170165 -0.445953 -0.0304345 -3.52914 
49 -0.0136598 2.16127 11.4907 -4.04178 -5.12169 -3.75732 -0.00524229 -0.442469 -0.041748 -3.52918 
50 -0.0399395 2.16121 14.0454 -4.04466 -5.11026 -3.70889 0.00688036 -0.438554 -0.0540584 -3.52922 
51 -0.0660661 2.16077 16.6012 -4.05101 -5.09391 -3.64467 0.0191167 -0.434734 -0.0676125 -3.52928 
52 -0.0920236 2.15995 19.1581 -4.06045 -5.07066 -3.56135 0.0310174 -0.431411 -0.0827434 -3.52934 
53 -0.11781 2.15877 21.7166 -4.07153 -5.03758 -3.45484 0.0419715 -0.428789 -0.0997949 -3.52942 
54 -0.143437 2.15723 24.277 -4.0811 -4.99038 -3.32051 0.0512818 -0.426866 -0.118906 -3.52953 
55 -0.168921 2.15537 26.8398 -4.08347 -4.92308 -3.15393 0.0582707 -0.425464 -0.139608 -3.52967 
56 -0.194282 2.15327 29.4055 -4.06931 -4.82796 -2.95263 0.0624535 -0.424282 -0.16026 -3.52986 
57 -0.219534 2.151 31.9742 -4.02546 -4.69691 -2.71865 0.0638237 -0.422928 -0.177743 -3.53012 
58 -0.244673 2.14866 34.5463 -3.93821 -4.52555 -2.46094 0.0631673 -0.420929 -0.188586 -3.53046 
59 -0.269667 2.14629 37.1216 -3.8021 -4.31927 -2.19367 0.0620247 -0.417746 -0.192532 -3.53087 
60 -0.29447 2.14381 39.6996 -3.6255 -4.09273 -1.92825 0.0619467 -0.412963 -0.194646 -3.53128 
61 -0.319053 2.14113 42.2798 -3.42039 -3.85665 -1.66494 0.0636336 -0.406721 -0.201056 -3.53164 
62 -0.343449 2.13816 44.8621 -3.19342 -3.60784 -1.39221 0.0663241 -0.399605 -0.218424 -3.53193 
63 -0.367813 2.13511 47.4464 -2.91507 -3.29628 -1.10672 0.0667102 -0.393942 -0.238769 -3.53223 
64 -0.392512 2.13371 50.032 -2.4325 -2.80151 -0.493684 0.0610072 -0.413265 -0.205421 -3.53324 
65 -0.418483 2.1304 52.6263 -1.76577 -2.00552 -0.561415 0.0454996 -0.30895 -0.729953 -3.52457 
66 -0.44812 2.14653 55.1778 6.97659 7.73843 2.4309 0.0330147 -0.597322 1.77022 -3.02528 
67 0.649859 2.05055 -55.162 1.38944 0.842381 -0.678385 -0.188253 -0.0991978 1.20761 -3.26036 
68 0.633027 2.08274 -52.6122 -1.11196 -2.2187 -0.457713 -0.374489 -0.489289 -0.161412 -3.53566 
69 0.607028 2.08678 -50.0319 -2.00557 -2.55576 -0.875626 -0.169329 -0.429896 0.0761658 -3.53397 
70 0.581254 2.08803 -47.4533 -2.63785 -3.07247 -1.21007 -0.124946 -0.403674 0.14715 -3.5329 
71 0.5564 2.09137 -44.8713 -3.05964 -3.44212 -1.36826 -0.103384 -0.397927 0.191747 -3.53225 
72 0.531749 2.09553 -42.2894 -3.35898 -3.72764 -1.59658 -0.0940849 -0.401626 0.203978 -3.53182 
73 0.507001 2.09995 -39.7087 -3.60304 -3.98355 -1.84678 -0.0924017 -0.407069 0.210366 -3.53141 
74 0.482053 2.10449 -37.13 -3.80567 -4.22143 -2.10999 -0.096484 -0.412203 0.214224 -3.53097 
75 0.456899 2.10915 -34.5538 -3.96366 -4.43618 -2.37902 -0.104663 -0.416644 0.213246 -3.53055 
76 0.431564 2.11392 -31.9807 -4.07265 -4.61803 -2.64182 -0.114609 -0.420664 0.204745 -3.53017 
77 0.406073 2.11875 -29.4109 -4.13593 -4.76176 -2.88474 -0.123789 -0.42451 0.188725 -3.52988 
78 0.380438 2.12353 -26.8443 -4.16384 -4.8695 -3.09777 -0.130334 -0.428154 0.167787 -3.52965 
79 0.354665 2.12816 -24.2806 -4.16831 -4.94762 -3.27671 -0.133406 -0.431444 0.145004 -3.52948 
80 0.328766 2.13257 -21.7194 -4.15927 -5.00336 -3.42214 -0.132985 -0.434254 0.122647 -3.52936 
81 0.302756 2.1367 -19.1603 -4.14378 -5.04298 -3.53742 -0.129496 -0.436558 0.101963 -3.52928 
82 0.276655 2.14053 -16.6028 -4.12638 -5.07129 -3.627 -0.123508 -0.438438 0.0834332 -3.52921 
83 0.250482 2.14403 -14.0467 -4.1097 -5.09175 -3.69536 -0.115584 -0.440064 0.0670743 -3.52917 
84 0.224249 2.1472 -11.4916 -4.09508 -5.10672 -3.74653 -0.106219 -0.441639 0.052681 -3.52913 
85 0.197963 2.15004 -8.93721 -4.08294 -5.11778 -3.78388 -0.095838 -0.443326 0.0399665 -3.52911 
86 0.171623 2.15254 -6.38337 -4.07314 -5.12591 -3.81007 -0.0848174 -0.445178 0.0286202 -3.52909 
87 0.145229 2.15472 -3.8299 -4.06526 -5.1317 -3.82703 -0.0734844 -0.447081 0.0183118 -3.52908 
88 0.118779 2.15658 -1.27665 -4.05876 -5.13542 -3.83599 -0.062098 -0.448751 0.00867997 -3.52907 
89 0.215202 4.32479 -0.000784199 -3.39179 -4.7425 -3.30011 -0.0732751 -0.929087 0.0362389 -3.53365 
90 0.285146 6.49731 1.27497 -2.77277 -4.34459 -2.86323 -0.0785972 -1.35616 0.0484089 -3.53382 
91 2.20497 2.73569 -5.70671e-05 -3.38877 -3.54405 -3.05082 -0.416107 -0.328377 0.246069 -3.52984 
92 2.17129 2.76248 2.55306 -3.37442 -3.55331 -3.04959 -0.416026 -0.334403 0.238155 -3.52984 
93 2.29122 4.92709 1.2753 -2.72478 -3.57062 -2.73018 -0.345766 -0.802738 0.0116733 -3.53336 
94 4.28792 3.33571 1.27703 -3.39942 -2.89795 -2.72671 -0.4982 -0.212072 0.758694 -3.53336 
95 0.162257 4.32735 2.55215 -3.38282 -4.74382 -3.29734 -0.058939 -0.929343 0.0179159 -3.53366 
96 0.109308 4.32924 5.10517 -3.37657 -4.74499 -3.28825 -0.0442754 -0.928127 -0.00076643 -3.53367 
97 0.205744 6.50048 3.82764 -2.76302 -4.34721 -2.85788 -0.0609816 -1.35526 0.0222454 -3.53383 
98 2.23083 4.95466 3.82833 -2.71071 -3.57986 -2.72605 -0.33628 -0.804399 -0.00441878 -3.53336 
99 0.126412 6.50261 6.38046 -2.75845 -4.35132 -2.84763 -0.0426818 -1.35328 -0.00453629 -3.53384 
100 4.24678 3.38762 3.83009 -3.3836 -2.91174 -2.72151 -0.504579 -0.226675 0.752215 -3.53336 
101 2.13726 2.7888 5.10628 -3.36098 -3.56392 -3.04167 -0.414428 -0.339809 0.230238 -3.52984 
102 2.1029 2.81463 7.65975 -3.34897 -3.57612 -3.02623 -0.410852 -0.344722 0.222137 -3.52983 
103 2.17013 4.98137 6.38152 -2.69974 -3.59086 -2.7155 -0.324722 -0.805293 -0.0207343 -3.53336 
104 4.20498 3.43891 6.38333 -3.36958 -2.92842 -2.71007 -0.508662 -0.241009 0.74548 -3.53336 
105 0.0564228 4.33046 7.6584 -3.37434 -4.7461 -3.27219 -0.0290508 -0.925631 -0.0201928 -3.53368 
106 0.00366789 4.33098 10.212 -3.37766 -4.74716 -3.24824 -0.0131519 -0.922364 -0.0407297 -3.53369 
107 0.0472387 6.50368 8.93355 -2.76083 -4.35714 -2.83202 -0.023709 -1.35085 -0.0324539 -3.53383 
108 2.10918 5.00719 8.93502 -2.69312 -3.60372 -2.69774 -0.310801 -0.805822 -0.0377136 -3.53336 
109 -0.0317089 6.50367 11.4871 -2.77158 -4.36481 -2.8103 -0.0042578 -1.3487 -0.0620782 -3.53382 
110 4.16253 3.48955 8.93688 -3.35805 -2.94821 -2.69159 -0.510006 -0.255436 0.738289 -3.53336 
111 2.06828 2.83994 10.2136 -3.33918 -3.58997 -3.00204 -0.404833 -0.349453 0.213616 -3.52983 
112 2.03341 2.86471 12.768 -3.33241 -3.60526 -2.96744 -0.396016 -0.354491 0.204342 -3.52982 
113 2.04802 5.03209 11.489 -2.69206 -3.6183 -2.67165 -0.294371 -0.806584 -0.0559346 -3.53336 
114 4.11949 3.53952 11.4909 -3.34978 -2.97121 -2.66487 -0.508212 -0.270466 0.730367 -3.53336 
115 -0.0489019 4.33079 12.7662 -3.38785 -4.74797 -3.21514 0.00333207 -0.918965 -0.0627881 -3.5337 
116 -0.10125 4.32986 15.3211 -3.40574 -4.74801 -3.17112 0.0201007 -0.915986 -0.0868711 -3.5337 
117 -0.110388 6.50256 14.0412 -2.7915 -4.37426 -2.78135 0.0153312 -1.34743 -0.0940712 -3.53379 
118 1.9867 5.05604 14.0436 -2.69753 -3.63426 -2.63578 -0.275441 -0.808269 -0.0761165 -3.53336 
119 -0.188781 6.50033 16.5961 -2.8208 -4.38508 -2.74342 0.034641 -1.34734 -0.129191 -3.53375 
120 4.07587 3.58878 14.0455 -3.34543 -2.99737 -2.62835 -0.502956 -0.286751 0.721312 -3.53336 
121 1.99833 2.88891 15.3233 -3.32927 -3.62143 -2.92037 -0.384195 -0.360453 0.193856 -3.5298 
122 1.96306 2.91251 17.8795 -3.32993 -3.63751 -2.85823 -0.369295 -0.368 0.181584 -3.52978 
123 1.92524 5.07901 16.5991 -2.71006 -3.65093 -2.58825 -0.254116 -0.811553 -0.0990869 -3.53335 
124 4.03168 3.63729 16.601 -3.34534 -3.02641 -2.58004 -0.49398 -0.305052 0.710562 -3.53335 
125 -0.153358 4.32819 17.8771 -3.4315 -4.74624 -3.11374 0.0366905 -0.913753 -0.113572 -3.5337 
126 -0.205225 4.32579 20.4343 -3.46453 -4.74088 -3.03971 0.0525403 -0.912313 -0.143494 -3.53369 
127 -0.266883 6.49697 19.1521 -2.85916 -4.39637 -2.69395 0.053247 -1.34841 -0.16824 -3.5337 
128 1.86363 5.10099 19.1557 -2.72964 -3.6673 -2.52661 -0.230539 -0.817021 -0.125705 -3.53333 
129 -0.3447 6.4925 21.7094 -2.90572 -4.40641 -2.6294 0.0707657 -1.35028 -0.211915 -3.53363 
130 3.98692 3.68502 19.1576 -3.34947 -3.05774 -2.51749 -0.481063 -0.326167 0.697405 -3.53334 
131 1.92758 2.93551 20.4371 -3.33382 -3.65194 -2.77791 -0.351333 -0.377738 0.166898 -3.52975 
132 1.8919 2.95789 22.9964 -3.33932 -3.66229 -2.67578 -0.330418 -0.390101 0.149249 -3.52972 
133 1.80187 5.12193 21.7137 -2.75564 -3.68173 -2.44782 -0.204878 -0.825122 -0.156721 -3.5333 
134 3.94159 3.73194 21.7156 -3.35708 -3.09022 -2.43782 -0.464049 -0.350837 0.681043 -3.53332 
135 -0.25686 4.32266 22.9932 -3.50316 -4.72906 -2.94482 0.0670392 -0.91147 -0.177042 -3.53369 
136 -0.308278 4.31887 25.5541 -3.54404 -4.70625 -2.82416 0.0795456 -0.910872 -0.214034 -3.53369 
137 -0.422234 6.48696 24.2683 -2.95873 -4.41225 -2.54507 0.0868644 -1.35233 -0.260501 -3.53356 
138 1.73996 5.14186 24.2735 -2.78641 -3.69169 -2.34832 -0.17739 -0.836117 -0.192506 -3.53327 
139 -0.499487 6.48042 26.8293 -3.01482 -4.40888 -2.4352 0.101214 -1.35383 -0.313323 -3.5335 
140 3.8957 3.77803 24.2754 -3.36648 -3.12178 -2.33775 -0.442955 -0.379545 0.660758 -3.53328 
141 1.85603 2.97967 25.5578 -3.34315 -3.66473 -2.54799 -0.30685 -0.405139 0.12844 -3.52967 
142 1.81998 3.00088 28.1217 -3.33941 -3.65327 -2.39118 -0.281345 -0.422124 0.105137 -3.52962 
143 1.6779 5.1608 26.8355 -2.81868 -3.69319 -2.22441 -0.14862 -0.849929 -0.232569 -3.53322 
144 3.84927 3.82328 26.8373 -3.37433 -3.14878 -2.21387 -0.418207 -0.412132 0.636257 -3.53323 
145 -0.359498 4.31449 28.1175 -3.58093 -4.66565 -2.67277 0.0893995 -0.910131 -0.253074 -3.53372 
146 -0.410535 4.30968 30.6838 -3.60312 -4.59773 -2.48732 0.0960079 -0.908871 -0.290857 -3.5338 
147 -0.576458 6.47305 29.3927 -3.06761 -4.38837 -2.29361 0.113373 -1.35412 -0.36795 -3.53347 
148 1.61573 5.17886 29.4001 -2.84629 -3.68012 -2.07292 -0.11972 -0.865761 -0.274794 -3.53317 
149 -0.653148 6.46512 31.9592 -3.10578 -4.33892 -2.11554 0.122663 -1.35272 -0.419441 -3.53349 
150 3.8024 3.86776 29.4017 -3.37465 -3.16496 -2.06307 -0.391002 -0.447115 0.608306 -3.53317 
151 1.78383 3.02164 30.6885 -3.31849 -3.61917 -2.20379 -0.255352 -0.439004 0.081591 -3.52957 
152 1.74771 3.04211 33.2586 -3.26685 -3.55128 -1.98796 -0.231227 -0.452141 0.0620334 -3.52955 
153 1.55353 5.19626 31.9676 -2.85857 -3.64348 -1.89232 -0.0927791 -0.881406 -0.31457 -3.53311 
154 3.75526 3.91159 31.9692 -3.35733 -3.16033 -1.88347 -0.363608 -0.480844 0.579583 -3.53311 
155 -0.46139 4.30466 33.2534 -3.59461 -4.49118 -2.26895 0.0991252 -0.906584 -0.322212 -3.53396 
156 -0.512028 4.29963 35.8265 -3.53746 -4.33709 -2.02631 0.0993231 -0.902346 -0.342583 -3.53423 
157 -0.729538 6.45701 34.5292 -3.11158 -4.24507 -1.90127 0.128254 -1.34914 -0.460729 -3.53362 
158 1.49147 5.21336 34.5386 -2.83924 -3.57125 -1.68433 -0.0707194 -0.892588 -0.34487 -3.53308 
159 -0.805561 6.44911 37.1028 -3.06364 -4.09218 -1.66094 0.129839 -1.34206 -0.48612 -3.53388 
160 3.70816 3.95503 34.5399 -3.30712 -3.12095 -1.6762 -0.339185 -0.507423 0.555081 -3.53307 
161 1.71179 3.06249 35.8321 -3.1704 -3.43959 -1.75086 -0.211613 -0.457602 0.0510155 -3.52961 
162 1.67622 3.08289 38.4086 -3.02346 -3.28232 -1.50324 -0.197611 -0.454948 0.0481882 -3.52977 
163 1.42978 5.23055 37.1128 -2.76923 -3.45068 -1.4558 -0.0561956 -0.894002 -0.359722 -3.53313 
164 3.66146 3.99834 37.1141 -3.20579 -3.0325 -1.44791 -0.32051 -0.521396 0.539989 -3.53313 
165 -0.562366 4.29465 38.4027 -3.42273 -4.13783 -1.77459 0.0982715 -0.894959 -0.353469 -3.53458 
166 -0.61231 4.28957 40.9816 -3.25791 -3.90946 -1.52615 0.0981923 -0.88388 -0.363848 -3.53492 
167 -0.881088 6.4415 39.6796 -2.95025 -3.87989 -1.41446 0.128668 -1.32973 -0.498686 -3.53425 
168 1.36871 5.24801 39.6902 -2.63797 -3.27712 -1.21856 -0.0495786 -0.884353 -0.36236 -3.5333 
169 -0.95601 6.43389 42.2588 -2.7798 -3.6283 -1.17954 0.127441 -1.31212 -0.511194 -3.53461 
170 3.61541 4.04169 39.6913 -3.04309 -2.88998 -1.21094 -0.307976 -0.523942 0.532938 -3.53329 
171 1.64102 3.10324 40.9876 -2.8344 -3.08838 -1.25283 -0.187537 -0.449406 0.0455722 -3.53 
172 1.60609 3.12338 43.5688 -2.61322 -2.86586 -0.997258 -0.178869 -0.447514 0.03486 -3.53027 
173 1.3083 5.26559 42.2698 -2.45191 -3.05972 -0.982726 -0.0480522 -0.870128 -0.367188 -3.53355 
174 3.56997 4.08498 42.2709 -2.82641 -2.70181 -0.977035 -0.299394 -0.524857 0.523079 -3.53354 
175 -0.661842 4.28417 43.5623 -3.05424 -3.66241 -1.28047 0.100238 -0.869948 -0.382111 -3.53523 
176 -0.711127 4.27844 46.1446 -2.82378 -3.39473 -1.01761 0.103596 -0.85532 -0.413697 -3.53549 
177 -1.03039 6.42607 44.8394 -2.55938 -3.34446 -0.962871 0.127529 -1.29154 -0.528903 -3.53496 
178 1.24842 5.28313 44.851 -2.21832 -2.8033 -0.7499 -0.0498804 -0.859802 -0.385724 -3.53386 
179 -1.10458 6.41838 47.4203 -2.29599 -3.01705 -0.776402 0.129765 -1.27252 -0.542043 -3.53528 
180 3.52493 4.12813 44.852 -2.56111 -2.47543 -0.752018 -0.292112 -0.533049 0.501829 -3.53383 
181 1.57124 3.14329 46.1516 -2.36458 -2.6174 -0.719073 -0.171228 -0.456865 0.00766122 -3.53054 
182 1.53633 3.16338 48.7364 -2.08956 -2.36152 -0.347743 -0.183222 -0.479894 -0.0323152 -3.53015 
183 1.1886 5.30066 47.4331 -1.94357 -2.50521 -0.518786 -0.0633745 -0.86614 -0.430862 -3.53412 
184 3.48001 4.17121 47.4338 -2.24097 -2.22056 -0.543965 -0.286169 -0.55927 0.457733 -3.53404 
185 -0.760666 4.2734 48.7285 -2.603 -3.07462 -0.669957 0.0971277 -0.846666 -0.419522 -3.53516 
186 -0.811621 4.26877 51.3169 -1.98842 -2.35107 0.311831 0.0838912 -0.841935 -0.653072 -3.53805 
187 -1.17889 6.41384 50.0002 -2.0573 -2.54162 -0.333476 0.0867532 -1.27782 -0.619782 -3.53573 
188 1.12775 5.31799 50.0156 -1.56925 -2.07903 -0.0212353 -0.110549 -0.945567 -0.597555 -3.53484 
189 -1.25707 6.40546 52.5877 -1.61241 -2.48693 0.643229 0.17579 -1.31624 -0.613064 -3.53282 
190 3.43505 4.21346 50.0156 -1.75905 -1.85302 -0.0391689 -0.309459 -0.668744 0.311597 -3.5349 
191 1.50027 3.18358 51.3264 -1.43163 -1.70133 0.6579 -0.17263 -0.548529 -0.133057 -3.53273 
192 1.46587 3.20964 53.9052 0.0267052 0.953995 -0.795867 0.566309 -0.560979 0.138977 -3.37565 
193 1.06597 5.33731 52.6041 -1.24919 -1.89858 0.441474 -0.236979 -0.801318 -0.410798 -3.52779 
194 3.38747 4.26008 52.6041 -1.41016 -1.71361 0.389813 -0.390662 -0.63943 0.587361 -3.52746 
195 -0.866323 4.2769 53.8949 -0.0508677 -0.206127 -1.18047 0.0793755 -1.26166 1.02744 -3.38132 
196 1.3298 4.1174 -56.3442 5.06942 2.90559 1.60242 -1.25473 -0.273892 0.110263 -2.79034 
197 -1.33605 6.40133 55.1665 4.18006 2.79745 1.28996 0.319922 -1.5232 0.197875 -3.26107 
198 1.00488 5.36129 55.1754 5.64208 6.63186 2.70774 0.369861 -0.636458 -0.0326202 -3.15047 
199 1.98371 6.26223 -55.1334 6.93988 9.11552 2.92914 0.134188 -0.847907 -0.525662 -3.02309 
200 3.34328 4.30996 55.1754 5.53064 7.35767 2.86911 0.118704 -0.278627 0.562634 -3.15115 
201 2.87095 2.09325 -56.362 4.04253 6.0065 1.881 -3.16453 0.252643 0.341789 -2.79939 
202 2.84551 2.1252 -53.8874 0.165006 0.763291 -3.02648 -0.98211 -0.732814 -0.162364 -3.51266 
203 3.53831 4.21674 -55.1525 6.03166 6.27391 1.75936 0.302437 -1.21951 -0.0444739 -3.1433 
204 5.07312 2.13635 -55.1525 6.04997 7.03886 2.00315 0.446065 -0.52812 0.0805355 -3.14511 
205 1.29262 4.16451 -53.8815 0.861257 -0.348257 -3.67507 -0.408879 -0.573878 0.839 -3.51412 
206 1.24176 4.17585 -51.3147 -1.28699 -1.91113 -0.376293 -0.214921 -0.880486 0.220621 -3.53903 
207 1.90264 6.26187 -52.5941 -0.917892 -1.45676 -0.572986 -0.184163 -1.16801 0.820118 -3.52792 
208 3.4607 4.22944 -52.6036 -0.74889 -0.925838 0.0954461 -0.677506 -0.496043 0.191391 -3.53019 
209 1.82403 6.27282 -50.0101 -1.64507 -2.32854 -0.26786 -0.199699 -1.28159 0.428733 -3.53672 
210 5.01221 2.17771 -52.6036 -1.34185 -0.348573 0.0546155 -0.502557 0.0192204 0.991512 -3.52952 
211 2.80522 2.14769 -51.32 -1.10368 -0.94687 -0.112851 -0.278136 -0.333077 0.262134 -3.53414 
212 2.77225 2.17449 -48.7405 -1.97002 -1.83802 -0.546604 -0.291013 -0.226725 0.332697 -3.53088 
213 3.40036 4.25787 -50.02 -1.43194 -1.65426 -0.14029 -0.408597 -0.709685 0.283881 -3.53497 
214 4.971 2.23184 -50.02 -1.84399 -1.27428 -0.114025 -0.296518 0.0199533 0.833984 -3.53501 
215 1.18964 4.18027 -48.7356 -2.17892 -2.759 -0.79124 -0.179847 -0.850192 0.275915 -3.5364 
216 1.13967 4.18607 -46.1541 -2.63767 -3.19331 -0.977456 -0.162798 -0.833496 0.39598 -3.53604 
217 1.74857 6.27835 -47.4306 -2.10115 -2.83573 -0.679757 -0.212612 -1.24115 0.539952 -3.53588 
218 3.345 4.28725 -47.4411 -1.8991 -2.21016 -0.563907 -0.300431 -0.640724 0.331526 -3.53414 
219 1.6746 6.28991 -44.8496 -2.47055 -3.19282 -0.866017 -0.19873 -1.24442 0.599444 -3.53534 
220 4.93479 2.28427 -47.4403 -2.32281 -1.78987 -0.541655 -0.211437 0.103599 0.861852 -3.5342 
221 2.74191 2.20156 -46.1594 -2.36514 -2.27003 -0.739342 -0.230158 -0.163499 0.388464 -3.53074 
222 2.71348 2.23002 -43.5776 -2.67757 -2.59335 -0.949892 -0.21343 -0.151622 0.409175 -3.53037 
223 3.29144 4.31926 -44.8605 -2.23465 -2.57535 -0.71851 -0.259096 -0.626114 0.367386 -3.53392 
224 4.90183 2.33718 -44.8595 -2.65778 -2.14518 -0.722659 -0.176476 0.141515 0.893527 -3.53393 
225 1.09046 4.1944 -43.5722 -2.97668 -3.51326 -1.20444 -0.149522 -0.841273 0.422038 -3.53553 
226 1.04117 4.20349 -40.9911 -3.23684 -3.78847 -1.44508 -0.146895 -0.854347 0.42891 -3.53509 
227 1.60084 6.30322 -42.2685 -2.75328 -3.49908 -1.09215 -0.197619 -1.26214 0.615544 -3.53484 
228 3.23882 4.35276 -42.2796 -2.50826 -2.87214 -0.917671 -0.241548 -0.628205 0.385372 -3.5336 
229 1.5266 6.31726 -39.6887 -2.96434 -3.76635 -1.33547 -0.204276 -1.28138 0.61946 -3.53439 
230 4.87041 2.391 -42.2786 -2.94112 -2.42801 -0.927762 -0.16526 0.153518 0.91888 -3.5336 
231 2.6856 2.25926 -40.9965 -2.93379 -2.85519 -1.17946 -0.210358 -0.149475 0.423307 -3.53006 
232 2.65782 2.28912 -38.4169 -3.14755 -3.07042 -1.42121 -0.214923 -0.148704 0.434905 -3.52981 
233 3.18643 4.38735 -39.6996 -2.7258 -3.11247 -1.14085 -0.235794 -0.633101 0.395947 -3.53333 
234 4.83957 2.44583 -39.6987 -3.17815 -2.64639 -1.15106 -0.165532 0.158394 0.940731 -3.53333 
235 0.991495 4.21288 -38.4116 -3.43667 -4.03291 -1.69577 -0.151737 -0.866863 0.430199 -3.53468 
236 0.941387 4.22251 -35.8346 -3.57784 -4.24327 -1.95112 -0.161133 -0.877035 0.425007 -3.53431 
237 1.45173 6.33183 -37.1111 -3.10677 -3.99001 -1.58727 -0.214892 -1.29742 0.614542 -3.53398 
238 3.13401 4.42291 -37.1217 -2.8875 -3.29635 -1.37428 -0.238948 -0.639593 0.398266 -3.53315 
239 1.37628 6.34695 -34.5366 -3.1815 -4.15898 -1.83378 -0.225178 -1.30979 0.595863 -3.53367 
240 4.80903 2.50165 -37.1207 -3.3658 -2.80317 -1.38334 -0.175532 0.158038 0.954741 -3.53315 
241 2.63005 2.31956 -35.8395 -3.31782 -3.23945 -1.66735 -0.226533 -0.150702 0.440761 -3.52964 
242 2.60225 2.35051 -33.2651 -3.44001 -3.36017 -1.90751 -0.24497 -0.158793 0.437033 -3.52955 
243 3.08149 4.45933 -34.5466 -2.99118 -3.42246 -1.6043 -0.250312 -0.65091 0.387117 -3.53306 
244 4.77871 2.55834 -34.5455 -3.49876 -2.90039 -1.61254 -0.195386 0.147511 0.955888 -3.53306 
245 0.890913 4.2324 -33.2606 -3.65978 -4.41061 -2.19968 -0.171696 -0.885094 0.409277 -3.53401 
246 0.840145 4.24243 -30.69 -3.68995 -4.53216 -2.4279 -0.180409 -0.891846 0.381963 -3.5338 
247 1.30036 6.36247 -31.9656 -3.19854 -4.27124 -2.05874 -0.232061 -1.31952 0.561113 -3.53349 
248 3.02877 4.49632 -31.9747 -3.04158 -3.49803 -1.81821 -0.268197 -0.667982 0.361355 -3.53307 
249 1.22404 6.37804 -29.3981 -3.17579 -4.3365 -2.2511 -0.234492 -1.32719 0.513856 -3.53342 
250 4.74844 2.61563 -31.9735 -3.57948 -2.94745 -1.82645 -0.223533 0.124419 0.944061 -3.53306 
251 2.57434 2.38178 -30.6939 -3.51556 -3.43681 -2.13041 -0.268456 -0.173593 0.423513 -3.52954 
252 2.54617 2.41313 -28.126 -3.553 -3.47989 -2.32765 -0.294062 -0.19269 0.403546 -3.52958 
253 2.97568 4.53345 -29.4062 -3.05116 -3.53711 -2.00772 -0.289608 -0.688363 0.325485 -3.53312 
254 4.71794 2.67318 -29.4049 -3.6184 -2.95966 -2.01644 -0.256593 0.0915861 0.923718 -3.5331 
255 0.789121 4.25241 -28.1227 -3.68303 -4.61385 -2.62614 -0.185474 -0.897698 0.346233 -3.53368 
256 0.737856 4.26211 -25.5585 -3.65423 -4.66539 -2.79091 -0.186332 -0.90265 0.306724 -3.53362 
257 1.14734 6.39328 -26.8339 -3.13077 -4.36851 -2.40758 -0.232629 -1.3328 0.460217 -3.53342 
258 2.92205 4.57035 -26.8408 -3.03411 -3.5534 -2.1695 -0.311299 -0.708988 0.285514 -3.53318 
259 1.07027 6.40786 -24.2724 -3.07674 -4.37963 -2.53052 -0.226962 -1.33656 0.405632 -3.53347 
260 4.68689 2.7307 -26.8393 -3.62792 -2.95167 -2.17852 -0.290931 0.0539724 0.899854 -3.53316 
261 2.51762 2.44436 -25.5612 -3.56337 -3.501 -2.49529 -0.319041 -0.213057 0.381112 -3.52963 
262 2.48857 2.47533 -22.999 -3.5566 -3.50956 -2.63327 -0.341551 -0.232495 0.359078 -3.52968 
263 2.86778 4.60672 -24.2781 -3.00229 -3.55716 -2.30367 -0.330732 -0.72773 0.245987 -3.53323 
264 4.65508 2.788 -24.2765 -3.6188 -2.9344 -2.31242 -0.323875 0.015927 0.876043 -3.53321 
265 0.686359 4.27135 -22.997 -3.61535 -4.69627 -2.92343 -0.183209 -0.906666 0.267263 -3.5336 
266 0.634645 4.28001 -20.4376 -3.57425 -4.71401 -3.02751 -0.176696 -0.909854 0.230176 -3.5336 
267 0.992873 6.42157 -21.7131 -3.0223 -4.37909 -2.62489 -0.218046 -1.33895 0.353613 -3.53353 
268 2.81283 4.64241 -21.7177 -2.96416 -3.55511 -2.41239 -0.346453 -0.74361 0.209419 -3.53327 
269 0.91517 6.43427 -19.1556 -2.97231 -4.37302 -2.6962 -0.206478 -1.34058 0.305864 -3.5336 
270 4.62238 2.84493 -21.7161 -3.5991 -2.91493 -2.42029 -0.353942 -0.0197863 0.854284 -3.53325 
271 2.45901 2.50594 -20.439 -3.5402 -3.51204 -2.744 -0.360697 -0.249865 0.338968 -3.52972 
272 2.42891 2.53615 -17.8809 -3.5193 -3.51244 -2.83109 -0.376274 -0.264838 0.32133 -3.52975 
273 2.7572 4.67732 -19.1593 -2.92515 -3.55129 -2.49879 -0.357956 -0.756504 0.176774 -3.5333 
274 4.58875 2.90144 -19.1576 -3.57434 -2.89734 -2.50545 -0.380554 -0.0518888 0.835415 -3.53329 
275 0.582736 4.28802 -17.88 -3.53552 -4.72396 -3.1078 -0.167492 -0.912453 0.196491 -3.53361 
276 0.530655 4.29535 -15.3237 -3.50148 -4.72957 -3.1688 -0.156273 -0.914764 0.166384 -3.53362 
277 0.837193 6.44591 -16.5995 -2.92901 -4.36519 -2.74947 -0.192885 -1.34201 0.262828 -3.53366 
278 2.70091 4.7114 -16.6023 -2.88833 -3.54794 -2.56629 -0.365369 -0.766775 0.148078 -3.53332 
279 0.758968 6.45646 -14.0444 -2.8929 -4.35768 -2.78882 -0.177873 -1.34367 0.224231 -3.53371 
280 4.55416 2.95747 -16.6007 -3.548 -2.88363 -2.57158 -0.403696 -0.0801392 0.819558 -3.53331 
281 2.39831 2.56594 -15.3243 -3.49714 -3.51298 -2.89839 -0.388489 -0.277581 0.306136 -3.52978 
282 2.36721 2.5953 -12.7688 -3.47553 -3.51472 -2.94951 -0.397759 -0.288499 0.293076 -3.5298 
283 2.64401 4.74465 -14.0466 -2.85521 -3.54612 -2.61819 -0.369161 -0.774993 0.122879 -3.53334 
284 4.51866 3.01301 -14.0449 -3.52212 -2.87451 -2.62211 -0.423652 -0.104891 0.806435 -3.53333 
285 0.47842 4.30198 -12.7685 -3.47292 -4.73299 -3.21443 -0.143637 -0.917078 0.139563 -3.53363 
286 0.42604 4.30791 -10.2141 -3.44966 -4.73541 -3.2479 -0.130086 -0.919592 0.115536 -3.53363 
287 0.680507 6.46592 -11.4902 -2.8634 -4.35154 -2.81748 -0.161976 -1.34581 0.189466 -3.53374 
288 2.58652 4.77708 -11.4918 -2.82616 -3.5462 -2.65741 -0.36994 -0.781733 0.10054 -3.53335 
289 0.601819 6.47429 -8.93654 -2.83926 -4.34711 -2.83788 -0.145615 -1.34843 0.157813 -3.53377 
290 4.48226 3.06806 -11.4901 -3.49771 -2.86991 -2.66005 -0.440844 -0.12676 0.795589 -3.53334 
291 2.33564 2.62422 -10.2141 -3.45535 -3.518 -2.98758 -0.404581 -0.298049 0.281739 -3.52981 
292 2.30362 2.65273 -7.66007 -3.43682 -3.52277 -3.01511 -0.409456 -0.306621 0.271709 -3.52982 
293 2.52847 4.80869 -8.93767 -2.80089 -3.54813 -2.6864 -0.368322 -0.787451 0.0804075 -3.53335 
294 4.445 3.12262 -8.93598 -3.4751 -2.86938 -2.68782 -0.455727 -0.146398 0.786502 -3.53335 
295 0.373521 4.31314 -7.6603 -3.43088 -4.73743 -3.27169 -0.11603 -0.922335 0.0937473 -3.53364 
296 0.320866 4.31769 -5.10689 -3.41555 -4.73928 -3.28763 -0.101777 -0.925114 0.0736351 -3.53364 
297 0.522912 6.48161 -6.38332 -2.81903 -4.34438 -2.85175 -0.129067 -1.35128 0.128548 -3.53379 
298 2.46989 4.83949 -6.38405 -2.77874 -3.55169 -2.70708 -0.36484 -0.792407 0.0618951 -3.53335 
299 0.443802 6.48787 -3.8304 -2.80147 -4.34316 -2.86024 -0.112439 -1.35389 0.100983 -3.5338 
300 4.40691 3.17667 -6.38236 -3.45421 -2.87234 -2.70728 -0.468707 -0.164376 0.778676 -3.53335 
301 2.27116 2.68081 -5.10649 -3.41976 -3.52881 -3.03405 -0.412826 -0.314473 0.262618 -3.52983 
302 2.23827 2.70846 -2.5532 -3.40385 -3.53593 -3.0457 -0.415003 -0.321722 0.254155 -3.52983 
303 2.4108 4.86949 -3.83077 -2.75896 -3.55666 -2.72079 -0.359861 -0.796666 0.0445173 -3.53336 
304 4.36802 3.23022 -3.82907 -3.43478 -2.87827 -2.71976 -0.480072 -0.181127 0.771667 -3.53336 
305 0.268086 4.32157 -2.55376 -3.40271 -4.74098 -3.2969 -0.0875137 -0.927533 0.054645 -3.53365 
306 0.364526 6.49311 -1.27767 -2.78596 -4.34327 -2.86399 -0.0956766 -1.35566 0.0744708 -3.53381 
307 2.35123 4.8987 -1.27769 -2.74101 -3.56295 -2.72838 -0.353533 -0.80015 0.0278844 -3.53336 
308 4.32834 3.28324 -1.27599 -3.41654 -2.88684 -2.72612 -0.489935 -0.196954 0.765104 -3.53336 
309 2.43623 7.09098 -0.00153068 -2.21618 -3.36014 -2.40115 -0.317203 -1.20563 -0.187838 -3.53291 
310 0.434483 8.66815 -0.00180075 -2.24781 -4.01609 -2.49641 -0.0993359 -1.7421 0.0832238 -3.53357 