ITEM: TIMESTEP
1061
ITEM: NUMBER OF ATOMS
37664
ITEM: BOX BOUNDS ff ff ff
-100 100
-100 100
-156.15 156.15
ITEM: ATOMS id x y z v_peratom_sxx v_peratom_syy v_peratom_szz v_peratom_sxy v_peratom_sxz v_peratom_syz c_atomPE 
1 -0.00365836 -0.00218949 0.00105315 -5.17911 -5.1718 -9.53867 0.000259172 -0.0114295 -0.0277713 -3.51528 
2 -0.00396338 -0.00207882 2.5543 -5.1784 -5.17101 -9.53771 -0.000156883 -0.013639 -0.0265858 -3.51527 
3 -0.00429611 -0.00191326 5.10762 -5.17319 -5.1661 -9.52703 -0.000824014 -0.0139862 -0.025323 -3.51532 
4 -0.0046427 -0.00169733 7.66113 -5.16267 -5.15647 -9.50513 -0.00173111 -0.0119369 -0.0241305 -3.51541 
5 -0.00497828 -0.00144541 10.215 -5.14587 -5.14125 -9.46989 -0.00278812 -0.00736103 -0.0230145 -3.51557 
6 -0.00527024 -0.0011777 12.7694 -5.12172 -5.11929 -9.41868 -0.00384276 -0.000619761 -0.021833 -3.5158 
7 -0.00548439 -0.000914509 15.3246 -5.08887 -5.08903 -9.34828 -0.00472874 0.00750549 -0.0203732 -3.51612 
8 -0.00559206 -0.000671454 17.8809 -5.0455 -5.0483 -9.25485 -0.00531818 0.0160132 -0.0184616 -3.51655 
9 -0.00557574 -0.000457164 20.4386 -4.98891 -4.99408 -9.13368 -0.00555317 0.023919 -0.0160479 -3.5171 
10 -0.00543158 -0.000273764 22.998 -4.91522 -4.92223 -8.97932 -0.00544961 0.0304459 -0.0132349 -3.5178 
11 -0.00516866 -0.000119212 25.5597 -4.81916 -4.82738 -8.78614 -0.00508032 0.0351281 -0.0102572 -3.51866 
12 -0.00480589 9.7701e-06 28.124 -4.69436 -4.70312 -8.55 -0.00454784 0.0378306 -0.00742243 -3.51969 
13 -0.00436729 0.00011537 30.6914 -4.53485 -4.54359 -8.27135 -0.00395587 0.0387045 -0.00503206 -3.52089 
14 -0.00387711 0.00019774 33.262 -4.33887 -4.34719 -7.95893 -0.00338653 0.0381042 -0.00330101 -3.5222 
15 -0.00335556 0.000255418 35.8358 -4.11416 -4.12181 -7.63024 -0.00288864 0.0364932 -0.00230683 -3.52347 
16 -0.0028164 0.00028624 38.4125 -3.87672 -3.88355 -7.30367 -0.00247772 0.0343441 -0.00199585 -3.52458 
17 -0.0022658 0.0002877 40.9917 -3.63809 -3.64408 -6.98567 -0.00214229 0.0320679 -0.00224355 -3.52548 
18 -0.00169995 0.000256816 43.5731 -3.39927 -3.40439 -6.6635 -0.00184811 0.0300552 -0.002908 -3.5262 
19 -0.00110098 0.000189759 46.1569 -3.13504 -3.13918 -6.30037 -0.00152551 0.0286816 -0.00383732 -3.52695 
20 -0.000439596 7.85866e-05 48.7435 -2.75183 -2.75404 -5.86097 -0.000847285 0.0277695 -0.00497934 -3.52782 
21 5.95933e-07 -4.11185e-08 51.3317 -1.92306 -1.9229 -4.91974 7.91729e-05 -0.00140217 0.000245745 -3.53203 
22 4.01304e-07 -1.42881e-06 53.9138 -0.851912 -0.851921 -8.91777 8.26036e-07 -2.9204e-05 -7.13847e-05 -3.48169 
23 8.71386e-07 -1.98378e-06 56.3885 1.68559 1.6856 1.87687 -1.59051e-05 2.44075e-05 -2.18293e-07 -2.55581 
24 -1.23087e-07 -1.12453e-06 -53.8876 -2.60694 -2.60696 -6.5496 -1.8561e-05 1.04984e-05 -3.26306e-05 -3.40183 
25 1.02659e-07 -1.55837e-06 -51.3239 -2.07914 -2.07932 -5.57939 -0.000269302 0.000659315 0.00144258 -3.52873 
26 -0.000167843 -0.000410608 -48.7462 -2.69437 -2.69174 -6.1474 0.00354107 -0.0106504 -0.0256449 -3.5264 
27 -0.00039068 -0.000988976 -46.1646 -3.02151 -3.01681 -6.34741 0.00626504 -0.00882429 -0.0239933 -3.52678 
28 -0.000553573 -0.00143005 -43.5822 -3.30317 -3.29666 -6.60782 0.00687328 -0.00547265 -0.0227797 -3.52635 
29 -0.000659139 -0.00176733 -41.0007 -3.55888 -3.55033 -6.89629 0.00678909 -0.00177825 -0.0219747 -3.52574 
30 -0.000726782 -0.0020197 -38.4209 -3.80948 -3.7989 -7.20525 0.00623316 0.00194141 -0.021414 -3.52491 
31 -0.00077865 -0.00219866 -35.8434 -4.0562 -4.04383 -7.53062 0.00532099 0.00535575 -0.0210114 -3.52384 
32 -0.000837431 -0.0023142 -33.2686 -4.28959 -4.27591 -7.86124 0.00418623 0.00810713 -0.0207864 -3.52261 
33 -0.000923264 -0.0023777 -30.6968 -4.49656 -4.48221 -8.17944 0.00299741 0.00991843 -0.0208133 -3.52132 
34 -0.00104992 -0.00240192 -28.1283 -4.66856 -4.65423 -8.46808 0.00192665 0.0106928 -0.0211628 -3.5201 
35 -0.00122208 -0.00239947 -25.5629 -4.8046 -4.79091 -8.71658 0.00110321 0.0105475 -0.0218532 -3.51901 
36 -0.001435 -0.00238128 -23.0002 -4.90875 -4.89613 -8.92199 0.000580923 0.00975448 -0.0228335 -3.5181 
37 -0.00167672 -0.00235584 -20.4399 -4.98691 -4.97558 -9.08672 0.000334986 0.00861268 -0.024006 -3.51736 
38 -0.00193213 -0.00232958 -17.8814 -5.04488 -5.03484 -9.21584 0.000287133 0.00731515 -0.0252615 -3.51678 
39 -0.00218756 -0.00230742 -15.3245 -5.08758 -5.07868 -9.31515 0.000344302 0.00587443 -0.0264991 -3.51632 
40 -0.00243436 -0.00229276 -12.7687 -5.11883 -5.11084 -9.39018 0.000431763 0.00414027 -0.0276203 -3.51597 
41 -0.00267065 -0.00228629 -10.2138 -5.1415 -5.13413 -9.44575 0.000506901 0.00190094 -0.0285132 -3.51572 
42 -0.00290107 -0.00228428 -7.65953 -5.1577 -5.15066 -9.48579 0.000551437 -0.000976928 -0.0290501 -3.51553 
43 -0.00313503 -0.00227735 -5.10574 -5.16886 -5.16189 -9.51338 0.000550509 -0.00442489 -0.0291182 -3.5154 
44 -0.00338404 -0.00225117 -2.55225 -5.17588 -5.16878 -9.53062 0.000472061 -0.00810659 -0.0286712 -3.51532 
45 0.0924547 2.15788 1.27692 -4.05625 -5.14038 -3.83752 -0.0511389 -0.45218 0.00370892 -3.52907 
46 0.0657768 2.15902 3.83011 -4.05013 -5.13952 -3.8317 -0.0397618 -0.452399 -0.00543422 -3.52908 
47 0.0390965 2.15987 6.38343 -4.04473 -5.13632 -3.81755 -0.0283563 -0.451019 -0.0149928 -3.5291 
48 0.0124658 2.16042 8.93703 -4.0408 -5.13058 -3.79382 -0.0166973 -0.448093 -0.0252246 -3.52913 
49 -0.0140606 2.16063 11.4911 -4.03935 -5.12191 -3.75886 -0.00462194 -0.44401 -0.0363162 -3.52917 
50 -0.0404333 2.1605 14.0458 -4.04129 -5.10957 -3.7106 0.00785093 -0.439368 -0.0484521 -3.52922 
51 -0.0666167 2.16001 16.6015 -4.04713 -5.09235 -3.64642 0.0204636 -0.434786 -0.0618836 -3.52928 
52 -0.0925928 2.15915 19.1584 -4.05653 -5.06832 -3.56298 0.0327344 -0.430751 -0.076945 -3.52935 
53 -0.118362 2.15793 21.7168 -4.06802 -5.03456 -3.45621 0.0440176 -0.427537 -0.0939772 -3.52943 
54 -0.143938 2.15636 24.2772 -4.07839 -4.98682 -3.32149 0.053586 -0.425191 -0.113113 -3.52953 
55 -0.169347 2.15449 26.8399 -4.08183 -4.91913 -3.15444 0.06074 -0.42357 -0.133872 -3.52967 
56 -0.194619 2.15238 29.4055 -4.06889 -4.82375 -2.9526 0.0649837 -0.422384 -0.1546 -3.52986 
57 -0.219775 2.15011 31.9742 -4.02625 -4.69257 -2.71805 0.0663098 -0.421233 -0.172158 -3.53012 
58 -0.244821 2.1478 34.5463 -3.94007 -4.52118 -2.45979 0.0655122 -0.41962 -0.183051 -3.53047 
59 -0.269734 2.14548 37.1216 -3.80477 -4.31497 -2.19203 0.0641452 -0.416961 -0.186995 -3.53087 
60 -0.294473 2.14307 39.6996 -3.62863 -4.08863 -1.92626 0.0637752 -0.412786 -0.189027 -3.53128 
61 -0.319013 2.1405 42.2798 -3.42357 -3.85288 -1.66279 0.0651171 -0.407189 -0.195244 -3.53164 
62 -0.343391 2.13767 44.8621 -3.19606 -3.6046 -1.39025 0.0674158 -0.400736 -0.212214 -3.53193 
63 -0.367766 2.13483 47.4464 -2.91617 -3.29364 -1.10606 0.067339 -0.395857 -0.23165 -3.53223 
64 -0.392512 2.13371 50.032 -2.43439 -2.80056 -0.495174 0.0605373 -0.414718 -0.201057 -3.53323 
65 -0.418483 2.1304 52.6263 -1.76577 -2.00552 -0.561407 0.0455051 -0.30893 -0.730002 -3.52457 
66 -0.44812 2.14653 55.1778 6.9766 7.73843 2.4309 0.0330165 -0.597322 1.77022 -3.02528 
67 0.649859 2.05055 -55.162 1.38944 0.842389 -0.678361 -0.188253 -0.0991977 1.20761 -3.26036 
68 0.633027 2.08274 -52.6122 -1.11196 -2.21867 -0.457719 -0.374491 -0.489286 -0.161476 -3.53566 
69 0.607028 2.08678 -50.0319 -2.00262 -2.55477 -0.871319 -0.17026 -0.42942 0.0815423 -3.53399 
70 0.581332 2.08836 -47.4532 -2.63767 -3.07113 -1.20636 -0.127104 -0.403092 0.155574 -3.5329 
71 0.556538 2.09194 -44.8711 -3.05902 -3.44043 -1.3664 -0.106846 -0.39747 0.199008 -3.53225 
72 0.531929 2.09627 -42.2892 -3.35794 -3.72593 -1.59538 -0.0983682 -0.401217 0.210593 -3.53183 
73 0.507211 2.10082 -39.7085 -3.60163 -3.98192 -1.84606 -0.0972326 -0.406596 0.216524 -3.53141 
74 0.482287 2.10545 -37.1298 -3.80393 -4.21996 -2.10975 -0.101682 -0.411535 0.220021 -3.53097 
75 0.457155 2.11016 -34.5537 -3.96167 -4.43498 -2.37929 -0.110068 -0.415662 0.218749 -3.53055 
76 0.431846 2.11496 -31.9806 -4.07057 -4.61718 -2.64259 -0.12006 -0.419285 0.210002 -3.53018 
77 0.406386 2.11978 -29.4108 -4.13397 -4.76135 -2.88595 -0.129126 -0.422698 0.193769 -3.52988 
78 0.380791 2.12454 -26.8442 -4.16224 -4.86958 -3.09932 -0.135412 -0.425934 0.172635 -3.52965 
79 0.355065 2.12913 -24.2805 -4.16732 -4.94826 -3.27845 -0.138102 -0.428904 0.149665 -3.52948 
80 0.329217 2.13347 -21.7193 -4.15911 -5.00457 -3.42391 -0.137209 -0.431538 0.127117 -3.52936 
81 0.303258 2.13752 -19.1602 -4.14461 -5.04477 -3.53904 -0.133187 -0.433854 0.10624 -3.52927 
82 0.277201 2.14124 -16.6028 -4.12827 -5.07364 -3.62832 -0.126641 -0.435964 0.0875202 -3.52921 
83 0.251057 2.14463 -14.0466 -4.11263 -5.09461 -3.69628 -0.118162 -0.43804 0.0709929 -3.52916 
84 0.224831 2.14766 -11.4914 -4.0989 -5.11001 -3.74702 -0.10827 -0.440265 0.0564763 -3.52912 
85 0.198524 2.15035 -8.937 -4.08738 -5.12138 -3.78398 -0.0974125 -0.442753 0.0437077 -3.5291 
86 0.172132 2.15271 -6.3831 -4.07786 -5.12968 -3.80989 -0.0859798 -0.445479 0.0323946 -3.52908 
87 0.145653 2.15474 -3.82957 -4.06985 -5.13547 -3.82676 -0.0743063 -0.448236 0.022212 -3.52907 
88 0.119089 2.15646 -1.27627 -4.06279 -5.13901 -3.8358 -0.0626477 -0.450636 0.0127875 -3.52906 
89 0.215423 4.32456 -0.000168655 -3.39667 -4.74669 -3.30057 -0.073881 -0.932467 0.0380599 -3.53364 
90 0.285229 6.49698 1.27574 -2.77672 -4.34868 -2.86385 -0.0792067 -1.36026 0.0489557 -3.53381 
91 2.20518 2.73546 0.000426941 -3.39189 -3.54841 -3.05212 -0.416445 -0.329059 0.248131 -3.52983 
92 2.17136 2.76217 2.55357 -3.37645 -3.55693 -3.0509 -0.416385 -0.335337 0.240222 -3.52983 
93 2.29131 4.92679 1.27597 -2.72851 -3.57421 -2.73153 -0.346202 -0.805359 0.0123036 -3.53335 
94 4.28803 3.33543 1.27761 -3.40193 -2.90205 -2.72839 -0.498833 -0.212884 0.760442 -3.53335 
95 0.162293 4.327 2.5528 -3.38583 -4.74723 -3.29787 -0.0593359 -0.932761 0.0199249 -3.53365 
96 0.109161 4.32879 5.10583 -3.37752 -4.74739 -3.2889 -0.0444286 -0.931232 0.00145499 -3.53366 
97 0.205611 6.50005 3.82843 -2.76459 -4.35015 -2.85839 -0.0612946 -1.35892 0.0229752 -3.53382 
98 2.23075 4.95429 3.82901 -2.71268 -3.58259 -2.72736 -0.336743 -0.806863 -0.00370829 -3.53335 
99 0.126086 6.5021 6.38124 -2.75772 -4.35288 -2.84807 -0.0426438 -1.35616 -0.00358689 -3.53383 
100 4.24675 3.3873 3.83069 -3.38482 -2.91493 -2.72317 -0.505301 -0.227571 0.753895 -3.53336 
101 2.13717 2.78843 5.10681 -3.36171 -3.56661 -3.04302 -0.414818 -0.340741 0.232384 -3.52983 
102 2.10268 2.8142 7.66027 -3.34833 -3.57778 -3.02762 -0.411224 -0.345404 0.224438 -3.52983 
103 2.16988 4.98095 6.38221 -2.69986 -3.59261 -2.71677 -0.325157 -0.807317 -0.0198221 -3.53336 
104 4.2048 3.43856 6.38393 -3.3694 -2.93055 -2.71172 -0.509425 -0.241774 0.747106 -3.53336 
105 0.0561102 4.32993 7.65906 -3.3733 -4.74733 -3.27297 -0.0289056 -0.928125 -0.0177512 -3.53368 
106 0.00322066 4.33038 10.2127 -3.37492 -4.74714 -3.24914 -0.0126525 -0.924043 -0.0380732 -3.53369 
107 0.0467586 6.50311 8.93432 -2.75816 -4.35723 -2.83242 -0.0232808 -1.35275 -0.0312665 -3.53383 
108 2.10879 5.00672 8.93569 -2.69149 -3.60443 -2.69893 -0.311122 -0.807183 -0.0364958 -3.53336 
109 -0.0322918 6.50305 11.4878 -2.7675 -4.36344 -2.81071 -0.00342788 -1.34953 -0.0606508 -3.53382 
110 4.16223 3.48917 8.93747 -3.3565 -2.94924 -2.69318 -0.510719 -0.255871 0.739894 -3.53336 
111 2.06793 2.83945 10.2141 -3.33725 -3.59062 -3.00339 -0.4051 -0.349677 0.216143 -3.52983 
112 2.03297 2.86417 12.7685 -3.32943 -3.60499 -2.96866 -0.396072 -0.354112 0.207146 -3.52982 
113 2.04754 5.03158 11.4896 -2.68901 -3.61805 -2.6727 -0.294486 -0.807148 -0.0543371 -3.53336 
114 4.11909 3.53909 11.4914 -3.34704 -2.97121 -2.66635 -0.508758 -0.270415 0.731998 -3.53336 
115 -0.0494425 4.33013 12.7668 -3.38388 -4.74674 -3.21613 0.00422331 -0.919733 -0.0599327 -3.5337 
116 -0.101837 4.32915 15.3217 -3.40113 -4.74567 -3.17217 0.021391 -0.915853 -0.0838414 -3.53371 
117 -0.111018 6.5019 14.0419 -2.78665 -4.37155 -2.78178 0.016542 -1.34722 -0.0924163 -3.5338 
118 1.98616 5.05549 14.0442 -2.69349 -3.63315 -2.63665 -0.275265 -0.807999 -0.0741031 -3.53336 
119 -0.1894 6.49964 16.5968 -2.81583 -4.38124 -2.7439 0.0361801 -1.34623 -0.127333 -3.53376 
120 4.0754 3.58831 14.0461 -3.34179 -2.99647 -2.62965 -0.503218 -0.286119 0.723018 -3.53336 
121 1.99783 2.88831 15.3237 -3.3256 -3.62038 -2.92134 -0.383939 -0.359406 0.196966 -3.52981 
122 1.96252 2.91186 17.8799 -3.32597 -3.63586 -2.85884 -0.368649 -0.366296 0.185002 -3.52979 
123 1.92468 5.07843 16.5996 -2.70555 -3.64913 -2.58887 -0.253588 -0.8105 -0.0966609 -3.53335 
124 4.03118 3.63677 16.6015 -3.34121 -3.02481 -2.58107 -0.493855 -0.303809 0.712387 -3.53336 
125 -0.153946 4.32745 17.8776 -3.42684 -4.74295 -3.1148 0.0383519 -0.912818 -0.110399 -3.53371 
126 -0.205771 4.32501 20.4348 -3.46039 -4.73686 -3.04072 0.0545119 -0.910745 -0.140213 -3.5337 
127 -0.267443 6.49626 19.1527 -2.85467 -4.39168 -2.69452 0.0550358 -1.34661 -0.166211 -3.53371 
128 1.86309 5.10036 19.1561 -2.72519 -3.66499 -2.52693 -0.229632 -0.815307 -0.122907 -3.53334 
129 -0.34516 6.49178 21.7099 -2.90222 -4.4012 -2.63006 0.0727074 -1.34804 -0.209756 -3.53364 
130 3.98642 3.68445 19.158 -3.34525 -3.05563 -2.51819 -0.48048 -0.324351 0.699382 -3.53334 
131 1.92705 2.93481 20.4374 -3.33 -3.64986 -2.77807 -0.35025 -0.375459 0.170598 -3.52976 
132 1.89141 2.95715 22.9967 -3.33604 -3.65995 -2.6754 -0.328894 -0.387381 0.153182 -3.52973 
133 1.8014 5.12127 21.7141 -2.75173 -3.6791 -2.44781 -0.203599 -0.822924 -0.153622 -3.53331 
134 3.94112 3.73132 21.716 -3.35319 -3.08781 -2.43811 -0.462976 -0.348537 0.683189 -3.53332 
135 -0.257328 4.32187 22.9936 -3.50001 -4.72455 -2.94574 0.0692339 -0.909482 -0.173689 -3.5337 
136 -0.308644 4.31806 25.5544 -3.54222 -4.70149 -2.82493 0.0818599 -0.908697 -0.210643 -3.5337 
137 -0.422567 6.48623 24.2687 -2.95659 -4.40682 -2.54582 0.088854 -1.34991 -0.258254 -3.53357 
138 1.73958 5.14117 24.2738 -2.78345 -3.68891 -2.34796 -0.17578 -0.833641 -0.189196 -3.53328 
139 -0.499678 6.47969 26.8296 -3.01427 -4.40353 -2.43602 0.103149 -1.35149 -0.311028 -3.53351 
140 3.89529 3.77736 24.2756 -3.36328 -3.11927 -2.33758 -0.4414 -0.376892 0.663073 -3.53329 
141 1.85561 2.97889 25.558 -3.34073 -3.66228 -2.54702 -0.304918 -0.402146 0.132542 -3.52968 
142 1.81964 3.00008 28.1218 -3.33808 -3.65084 -2.3896 -0.279072 -0.419044 0.109341 -3.52962 
143 1.67763 5.16008 26.8357 -2.81695 -3.69043 -2.22369 -0.146747 -0.847389 -0.229147 -3.53323 
144 3.84893 3.82258 26.8375 -3.37209 -3.14631 -2.21321 -0.41622 -0.409282 0.63873 -3.53324 
145 -0.359747 4.31368 28.1177 -3.58065 -4.66085 -2.67334 0.0917247 -0.908004 -0.249672 -3.53373 
146 -0.410666 4.30887 30.684 -3.60441 -4.59308 -2.48764 0.0982407 -0.90701 -0.287459 -3.53381 
147 -0.576509 6.47232 29.393 -3.06871 -4.38335 -2.29445 0.115163 -1.35209 -0.365637 -3.53348 
148 1.61557 5.17813 29.4002 -2.84595 -3.67748 -2.07186 -0.117672 -0.863361 -0.27135 -3.53318 
149 -0.65307 6.4644 31.9595 -3.1084 -4.3344 -2.11634 0.124235 -1.3512 -0.417118 -3.5335 
150 3.80214 3.86703 29.4019 -3.37353 -3.16265 -2.06192 -0.388665 -0.444228 0.610922 -3.53318 
151 1.78358 3.02083 30.6886 -3.31834 -3.61683 -2.20163 -0.252835 -0.436019 0.0858357 -3.52957 
152 1.74754 3.0413 33.2586 -3.26783 -3.54908 -1.98528 -0.228585 -0.449408 0.0662776 -3.52956 
153 1.55348 5.19554 31.9678 -2.85961 -3.64107 -1.89094 -0.0906577 -0.879321 -0.311168 -3.53312 
154 3.75509 3.91086 31.9693 -3.35737 -3.15825 -1.88184 -0.361035 -0.478069 0.58233 -3.53311 
155 -0.461412 4.30387 33.2536 -3.59731 -4.4868 -2.26899 0.101175 -0.905177 -0.318809 -3.53397 
156 -0.511959 4.29887 35.8266 -3.54128 -4.33307 -2.02609 0.101118 -0.901537 -0.33914 -3.53423 
157 -0.729356 6.45633 34.5294 -3.11546 -4.24114 -1.90198 0.129559 -1.34827 -0.458371 -3.53363 
158 1.49151 5.21265 34.5386 -2.84149 -3.5691 -1.6827 -0.0686362 -0.890949 -0.341538 -3.53309 
159 -0.805308 6.44846 37.103 -3.06834 -4.08889 -1.66156 0.130849 -1.34193 -0.483667 -3.53389 
160 3.70806 3.95431 34.54 -3.30822 -3.11911 -1.67418 -0.336516 -0.504874 0.557963 -3.53308 
161 1.7117 3.06171 35.832 -3.17232 -3.43755 -1.74779 -0.20898 -0.455235 0.0552479 -3.52962 
162 1.6762 3.08217 38.4085 -3.02602 -3.28042 -1.49995 -0.195128 -0.453005 0.0524334 -3.52978 
163 1.42989 5.22988 37.1129 -2.77239 -3.44881 -1.45404 -0.0542663 -0.89288 -0.356439 -3.53314 
164 3.66142 3.99766 37.1141 -3.20773 -3.03089 -1.44561 -0.317901 -0.519143 0.543026 -3.53313 
165 -0.562232 4.29395 38.4028 -3.42723 -4.13423 -1.77415 0.0997583 -0.894833 -0.349925 -3.53458 
166 -0.612141 4.28895 40.9816 -3.26256 -3.90635 -1.52565 0.0993416 -0.884459 -0.360108 -3.53492 
167 -0.8808 6.44091 39.6798 -2.95524 -3.87722 -1.41505 0.129378 -1.33036 -0.496039 -3.53425 
168 1.36886 5.2474 39.6902 -2.64161 -3.27551 -1.21685 -0.0479108 -0.883748 -0.359057 -3.53331 
169 -0.955727 6.43339 42.259 -2.78446 -3.62631 -1.1803 0.127882 -1.31346 -0.508207 -3.53461 
170 3.61542 4.04107 39.6913 -3.04552 -2.88855 -1.20852 -0.305587 -0.521998 0.536175 -3.5333 
171 1.64104 3.1026 40.9876 -2.83724 -3.08662 -1.24955 -0.185334 -0.447885 0.0498948 -3.53 
172 1.60614 3.12286 43.5687 -2.61589 -2.86429 -0.994288 -0.177065 -0.446352 0.039396 -3.53027 
173 1.30846 5.26508 42.2698 -2.45554 -3.05843 -0.98127 -0.0467319 -0.869974 -0.363738 -3.53355 
174 3.57001 4.08445 42.2709 -2.82895 -2.70056 -0.974715 -0.297379 -0.523182 0.526591 -3.53354 
175 -0.66167 4.28367 43.5624 -3.05844 -3.65995 -1.28017 0.10105 -0.871214 -0.378025 -3.53523 
176 -0.710989 4.2781 46.1447 -2.82683 -3.39336 -1.018 0.104121 -0.857281 -0.408944 -3.53549 
177 -1.03015 6.42569 44.8395 -2.56313 -3.34338 -0.964249 0.127786 -1.29352 -0.525342 -3.53495 
178 1.24856 5.28276 44.851 -2.22145 -2.80253 -0.748882 -0.0489623 -0.859984 -0.381917 -3.53386 
179 -1.10443 6.41816 47.4204 -2.2985 -3.01768 -0.779327 0.130002 -1.27514 -0.537459 -3.53528 
180 3.52498 4.12774 44.852 -2.56335 -2.47449 -0.749958 -0.290622 -0.531558 0.505763 -3.53383 
181 1.57129 3.14294 46.1516 -2.36657 -2.61629 -0.716686 -0.169936 -0.455902 0.0127623 -3.53054 
182 1.53636 3.16327 48.7364 -2.09019 -2.36098 -0.345966 -0.182723 -0.478771 -0.0257124 -3.53015 
183 1.1887 5.30045 47.4331 -1.94588 -2.50561 -0.517996 -0.0628572 -0.866558 -0.426429 -3.53411 
184 3.48005 4.171 47.4338 -2.24255 -2.22062 -0.541872 -0.285308 -0.557904 0.462426 -3.53403 
185 -0.760608 4.27328 48.7285 -2.6041 -3.07517 -0.672105 0.0974615 -0.849717 -0.413025 -3.53515 
186 -0.811621 4.26877 51.3169 -1.98848 -2.35116 0.310472 0.0838823 -0.841703 -0.653449 -3.53805 
187 -1.17889 6.41384 50.0002 -2.05973 -2.54266 -0.33663 0.0873673 -1.28006 -0.616626 -3.53572 
188 1.12775 5.31799 50.0156 -1.56907 -2.07879 -0.0206178 -0.110967 -0.945824 -0.595042 -3.53485 
189 -1.25707 6.40546 52.5877 -1.61235 -2.48688 0.643299 0.175759 -1.31617 -0.613146 -3.53282 
190 3.43505 4.21346 50.0156 -1.75823 -1.85271 -0.0377386 -0.309215 -0.668224 0.314396 -3.53491 
191 1.50027 3.18358 51.3264 -1.43157 -1.70132 0.658637 -0.172625 -0.54836 -0.133369 -3.53273 
192 1.46587 3.20964 53.9052 0.0267025 0.953993 -0.795866 0.566308 -0.560983 0.138972 -3.37565 
193 1.06597 5.33731 52.6041 -1.24921 -1.89855 0.441469 -0.236971 -0.801326 -0.410825 -3.52779 
194 3.38747 4.26008 52.6041 -1.41016 -1.71356 0.389819 -0.390657 -0.639445 0.58732 -3.52746 
195 -0.866323 4.2769 53.8949 -0.0508695 -0.206138 -1.18049 0.0793781 -1.26166 1.02744 -3.38132 
196 1.3298 4.1174 -56.3442 5.06942 2.90559 1.60242 -1.25473 -0.273892 0.110264 -2.79034 
197 -1.33605 6.40133 55.1665 4.18005 2.79746 1.28995 0.319921 -1.5232 0.197883 -3.26107 
198 1.00488 5.36129 55.1754 5.64209 6.63186 2.70774 0.369866 -0.636458 -0.0326131 -3.15047 
199 1.98371 6.26223 -55.1334 6.93989 9.11553 2.92917 0.134187 -0.847908 -0.525658 -3.02309 
200 3.34328 4.30996 55.1754 5.53065 7.35768 2.86912 0.118703 -0.278623 0.562638 -3.15115 
201 2.87095 2.09325 -56.362 4.04253 6.0065 1.88101 -3.16453 0.252646 0.341791 -2.79939 
202 2.84551 2.1252 -53.8874 0.16502 0.763303 -3.02646 -0.982109 -0.732815 -0.162365 -3.51266 
203 3.53831 4.21674 -55.1525 6.03166 6.27392 1.75936 0.302437 -1.21951 -0.0444714 -3.1433 
204 5.07312 2.13635 -55.1525 6.04997 7.03887 2.00315 0.446065 -0.528119 0.0805377 -3.14511 
205 1.29262 4.16451 -53.8815 0.86127 -0.348231 -3.67504 -0.408875 -0.573881 0.839002 -3.51412 
206 1.24176 4.17585 -51.3147 -1.28678 -1.91097 -0.373642 -0.214932 -0.880577 0.220129 -3.53903 
207 1.90264 6.26187 -52.5941 -0.917831 -1.4568 -0.573015 -0.18418 -1.16804 0.819996 -3.52792 
208 3.4607 4.22944 -52.6036 -0.748877 -0.925832 0.0954434 -0.677537 -0.496072 0.191363 -3.53019 
209 1.82403 6.27282 -50.0101 -1.64249 -2.32529 -0.262103 -0.200426 -1.28157 0.433111 -3.53673 
210 5.01221 2.17771 -52.6036 -1.34184 -0.348567 0.0546192 -0.502577 0.0191959 0.991503 -3.52952 
211 2.80522 2.14769 -51.32 -1.10367 -0.946854 -0.112648 -0.278078 -0.333016 0.261771 -3.53414 
212 2.77226 2.17461 -48.7405 -1.96844 -1.83655 -0.545401 -0.291624 -0.223431 0.338168 -3.53087 
213 3.40036 4.25787 -50.02 -1.4313 -1.65379 -0.138834 -0.408367 -0.708714 0.286425 -3.53497 
214 4.971 2.23184 -50.02 -1.84407 -1.2739 -0.113613 -0.296358 0.020995 0.836032 -3.535 
215 1.18965 4.18043 -48.7355 -2.17785 -2.75545 -0.785529 -0.180403 -0.850015 0.284313 -3.5364 
216 1.13973 4.18651 -46.154 -2.63693 -3.19114 -0.973695 -0.165244 -0.833592 0.402244 -3.53604 
217 1.74858 6.27865 -47.4305 -2.10024 -2.83274 -0.673094 -0.213726 -1.24112 0.546488 -3.53588 
218 3.345 4.2875 -47.4411 -1.89791 -2.20778 -0.561322 -0.30123 -0.639183 0.33607 -3.53414 
219 1.67465 6.29044 -44.8494 -2.4696 -3.19094 -0.861635 -0.201099 -1.24467 0.60475 -3.53533 
220 4.93481 2.28446 -47.4403 -2.32162 -1.78816 -0.540626 -0.212381 0.105957 0.865052 -3.53419 
221 2.74198 2.20191 -46.1593 -2.36433 -2.26778 -0.738653 -0.232046 -0.161292 0.392768 -3.53074 
222 2.7136 2.23054 -43.5775 -2.67663 -2.59066 -0.950169 -0.216245 -0.149909 0.412888 -3.53037 
223 3.29148 4.31968 -44.8604 -2.23372 -2.573 -0.716646 -0.260907 -0.625147 0.371342 -3.53392 
224 4.9019 2.33752 -44.8595 -2.65684 -2.14334 -0.721905 -0.178381 0.143382 0.896221 -3.53392 
225 1.09055 4.19505 -43.572 -2.97552 -3.51146 -1.20174 -0.15307 -0.841489 0.427438 -3.53553 
226 1.04129 4.20428 -40.9908 -3.23515 -3.78671 -1.44303 -0.151135 -0.854492 0.433769 -3.53509 
227 1.60091 6.30393 -42.2683 -2.75182 -3.49743 -1.08885 -0.200743 -1.26241 0.620126 -3.53483 
228 3.2389 4.35333 -42.2794 -2.50712 -2.86953 -0.916725 -0.244108 -0.627508 0.388848 -3.5336 
229 1.52672 6.31809 -39.6884 -2.9624 -3.76468 -1.33281 -0.207869 -1.28147 0.623553 -3.53438 
230 4.87051 2.39145 -42.2785 -2.9401 -2.42578 -0.92764 -0.167869 0.155029 0.921142 -3.5336 
231 2.68576 2.2599 -40.9963 -2.93255 -2.85208 -1.18062 -0.213828 -0.147928 0.426625 -3.53006 
232 2.65801 2.28984 -38.4167 -3.14604 -3.06701 -1.4231 -0.218867 -0.147123 0.437939 -3.52981 
233 3.18654 4.38801 -39.6994 -2.72434 -3.10959 -1.14073 -0.238886 -0.632405 0.399084 -3.53333 
234 4.83971 2.44634 -39.6985 -3.17693 -2.64377 -1.15156 -0.168652 0.159746 0.942622 -3.53333 
235 0.991646 4.21378 -38.4113 -3.43454 -4.03118 -1.69423 -0.156413 -0.866796 0.434661 -3.53468 
236 0.941573 4.22348 -35.8343 -3.57543 -4.24163 -1.95007 -0.16605 -0.876646 0.429148 -3.53431 
237 1.45189 6.33274 -37.1107 -3.10453 -3.98833 -1.58512 -0.218749 -1.29722 0.618271 -3.53398 
238 3.13416 4.42364 -37.1215 -2.88578 -3.29328 -1.37486 -0.2424 -0.638711 0.401178 -3.53314 
239 1.3765 6.34791 -34.5362 -3.1792 -4.15733 -1.83214 -0.229135 -1.30923 0.599293 -3.53367 
240 4.8092 2.5022 -37.1205 -3.36441 -2.80024 -1.38438 -0.179003 0.159398 0.956328 -3.53314 
241 2.63026 2.32033 -35.8394 -3.31611 -3.23587 -1.66985 -0.230798 -0.148933 0.443599 -3.52963 
242 2.60249 2.3513 -33.2649 -3.43823 -3.35658 -1.91051 -0.249407 -0.156722 0.43975 -3.52955 
243 3.08169 4.46009 -34.5463 -2.98934 -3.41932 -1.60547 -0.253971 -0.649722 0.38989 -3.53306 
244 4.77892 2.5589 -34.5453 -3.4973 -2.89727 -1.61405 -0.199062 0.14901 0.95724 -3.53306 
245 0.891143 4.23341 -33.2603 -3.65731 -4.40915 -2.19913 -0.176683 -0.884313 0.413141 -3.53401 
246 0.840429 4.24345 -30.6897 -3.68772 -4.53101 -2.42786 -0.18531 -0.890652 0.385572 -3.5338 
247 1.30065 6.36345 -31.9652 -3.19652 -4.26973 -2.05764 -0.235983 -1.3186 0.564271 -3.53349 
248 3.02902 4.49707 -31.9745 -3.03985 -3.49496 -1.8199 -0.271916 -0.666432 0.364054 -3.53307 
249 1.22442 6.37902 -29.3977 -3.17441 -4.33528 -2.25059 -0.238271 -1.32593 0.516747 -3.53342 
250 4.74868 2.61617 -31.9733 -3.57809 -2.94429 -1.82836 -0.227273 0.126152 0.945254 -3.53306 
251 2.57462 2.38255 -30.6937 -3.51387 -3.43341 -2.13381 -0.272915 -0.171151 0.426176 -3.52954 
252 2.54649 2.41387 -28.1258 -3.55159 -3.4769 -2.33132 -0.298396 -0.189864 0.406209 -3.52957 
253 2.97599 4.53418 -29.4059 -3.04979 -3.53429 -2.00984 -0.29325 -0.686457 0.328152 -3.53312 
254 4.71822 2.67368 -29.4046 -3.61725 -2.95667 -2.01867 -0.260263 0.0936027 0.924829 -3.5331 
255 0.789472 4.25341 -28.1224 -3.68139 -4.61312 -2.6266 -0.190155 -0.89613 0.349593 -3.53368 
256 0.738283 4.26307 -25.5582 -3.6535 -4.6652 -2.79179 -0.190684 -0.900808 0.30983 -3.53362 
257 1.14781 6.39423 -26.8335 -3.13042 -4.36773 -2.40765 -0.236183 -1.33132 0.462829 -3.53342 
258 2.92243 4.57103 -26.8405 -3.03338 -3.55105 -2.17195 -0.314739 -0.706799 0.288165 -3.53318 
259 1.07086 6.40875 -24.272 -3.07777 -4.37948 -2.53112 -0.230233 -1.33501 0.407943 -3.53347 
260 4.68722 2.73114 -26.8391 -3.6272 -2.94908 -2.181 -0.294407 0.0562723 0.900957 -3.53316 
261 2.51799 2.44505 -25.561 -3.56244 -3.49866 -2.49909 -0.323116 -0.209896 0.38381 -3.52962 
262 2.489 2.47595 -22.9988 -3.55634 -3.50808 -2.63706 -0.345251 -0.229107 0.36182 -3.52967 
263 2.86824 4.60734 -24.2778 -3.00246 -3.55549 -2.30634 -0.333863 -0.725389 0.248608 -3.53323 
264 4.65547 2.78836 -24.2763 -3.61869 -2.93247 -2.31506 -0.327052 0.0184559 0.877199 -3.53321 
265 0.686868 4.27225 -22.9967 -3.61585 -4.69675 -2.92463 -0.187152 -0.904705 0.270107 -3.5336 
266 0.635233 4.28083 -20.4373 -3.57618 -4.71527 -3.0289 -0.180179 -0.907973 0.232749 -3.5336 
267 0.993562 6.42239 -21.7127 -3.02497 -4.37973 -2.62593 -0.220998 -1.33754 0.3556 -3.53353 
268 2.81337 4.64295 -21.7174 -2.96547 -3.5543 -2.41516 -0.349194 -0.741297 0.211971 -3.53327 
269 0.91595 6.43499 -19.1551 -2.97674 -4.37458 -2.69755 -0.209099 -1.33954 0.30751 -3.53359 
270 4.62282 2.84522 -21.7158 -3.59977 -2.9139 -2.42299 -0.356736 -0.017132 0.855537 -3.53325 
271 2.45948 2.50648 -20.4388 -3.54076 -3.51161 -2.74765 -0.363932 -0.246406 0.341739 -3.52971 
272 2.42944 2.5366 -17.8807 -3.52078 -3.51317 -2.83446 -0.378986 -0.261499 0.324096 -3.52975 
273 2.75781 4.67776 -19.1589 -2.92772 -3.55151 -2.50154 -0.360256 -0.754424 0.179197 -3.5333 
274 4.58924 2.90164 -19.1573 -3.57588 -2.89741 -2.50813 -0.382914 -0.0492499 0.836794 -3.53328 
275 0.583393 4.28874 -17.8797 -3.53898 -4.72603 -3.10924 -0.170493 -0.910878 0.198795 -3.5336 
276 0.531359 4.29595 -15.3234 -3.50642 -4.73247 -3.17016 -0.158797 -0.913722 0.168435 -3.53361 
277 0.83804 6.44652 -16.599 -2.93516 -4.36773 -2.75098 -0.195178 -1.34158 0.264134 -3.53365 
278 2.70158 4.71174 -16.602 -2.8922 -3.54925 -2.56891 -0.367208 -0.765139 0.150307 -3.53332 
279 0.759844 6.45694 -14.0439 -2.90054 -4.3612 -2.79036 -0.179859 -1.34404 0.225219 -3.53369 
280 4.55469 2.95758 -16.6003 -3.55045 -2.88491 -2.57416 -0.4056 -0.0776769 0.821071 -3.53331 
281 2.39886 2.56629 -15.324 -3.49953 -3.5149 -2.90139 -0.390656 -0.274561 0.308854 -3.52977 
282 2.36778 2.59554 -12.7685 -3.47875 -3.51775 -2.9521 -0.399398 -0.285981 0.295704 -3.52979 
283 2.6447 4.74489 -14.0462 -2.86027 -3.54851 -2.62059 -0.370557 -0.773987 0.124853 -3.53333 
284 4.51921 3.01305 -14.0446 -3.52542 -2.877 -2.62454 -0.425119 -0.102766 0.808076 -3.53332 
285 0.479141 4.30245 -12.7682 -3.47913 -4.73664 -3.21561 -0.145712 -0.916767 0.141398 -3.53362 
286 0.426741 4.30824 -10.2137 -3.45675 -4.73968 -3.24885 -0.131759 -0.920149 0.117214 -3.53362 
287 0.681367 6.46626 -11.4896 -2.8721 -4.35592 -2.81894 -0.163687 -1.34712 0.190181 -3.53373 
288 2.5872 4.77721 -11.4914 -2.83218 -3.54954 -2.65956 -0.370946 -0.781494 0.102217 -3.53334 
289 0.602611 6.47449 -8.93595 -2.84841 -4.35213 -2.83917 -0.147086 -1.35072 0.158324 -3.53375 
290 4.48281 3.06802 -11.4897 -3.5017 -2.87349 -2.66229 -0.441928 -0.125108 0.797335 -3.53333 
291 2.3362 2.62437 -10.2138 -3.45921 -3.52196 -2.98975 -0.405749 -0.296175 0.284242 -3.5298 
292 2.30413 2.65277 -7.65973 -3.44104 -3.52738 -3.01693 -0.410245 -0.30547 0.274072 -3.52981 
293 2.52911 4.80871 -8.93719 -2.80748 -3.55219 -2.6883 -0.369025 -0.788036 0.0817709 -3.53334 
294 4.44552 3.12251 -8.93556 -3.47952 -2.87381 -2.68987 -0.456515 -0.145312 0.788322 -3.53334 
295 0.374159 4.31333 -7.65984 -3.43834 -4.74212 -3.27241 -0.117359 -0.923808 0.0953439 -3.53362 
296 0.321399 4.31773 -5.10638 -3.42277 -4.74411 -3.28818 -0.102822 -0.927439 0.0752328 -3.53363 
297 0.523582 6.48166 -6.38268 -2.8279 -4.34975 -2.85285 -0.130327 -1.35446 0.12894 -3.53377 
298 2.47044 4.83942 -6.38351 -2.78542 -3.55616 -2.70875 -0.365343 -0.793783 0.0629636 -3.53334 
299 0.444305 6.48779 -3.82971 -2.80931 -4.3485 -2.86115 -0.113501 -1.35772 0.101346 -3.53378 
300 4.40737 3.17651 -6.38189 -3.45873 -2.87728 -2.70917 -0.469308 -0.163888 0.780531 -3.53334 
301 2.2716 2.68075 -5.1061 -3.42399 -3.53371 -3.03558 -0.413349 -0.314044 0.264846 -3.52982 
302 2.23861 2.70832 -2.55276 -3.40771 -3.54073 -3.04707 -0.415382 -0.32193 0.256276 -3.52982 
303 2.41122 4.86933 -3.83018 -2.76517 -3.56118 -2.7223 -0.360271 -0.7987 0.045345 -3.53334 
304 4.36838 3.23 -3.82856 -3.439 -2.88331 -2.72154 -0.4806 -0.181199 0.773517 -3.53335 
305 0.268476 4.32147 -2.55319 -3.40905 -4.74565 -3.29736 -0.0883254 -0.930527 0.0563222 -3.53363 
306 0.364828 6.49289 -1.27693 -2.7921 -4.34817 -2.86474 -0.0965299 -1.35983 0.0748895 -3.5338 
307 2.35149 4.89846 -1.27706 -2.74621 -3.56716 -2.72979 -0.353934 -0.80262 0.0285579 -3.53335 
308 4.32859 3.28299 -1.27544 -3.42008 -2.89158 -2.72783 -0.490487 -0.197479 0.766914 -3.53335 
309 2.43639 7.09067 -0.000753537 -2.22122 -3.36377 -2.40274 -0.317728 -1.20938 -0.188539 -3.53289 
310 0.434647 8.66783 -0.000956983 -2.2524 -4.02071 -2.4971 -0.100142 -1.74679 0.0828012 -3.53355 