ITEM: TIMESTEP
1061
ITEM: NUMBER OF ATOMS
37664
ITEM: BOX BOUNDS ff ff ff
-100 100
-100 100
-156.15 156.15
ITEM: ATOMS id x y z v_peratom_sxx v_peratom_syy v_peratom_szz v_peratom_sxy v_peratom_sxz v_peratom_syz c_atomPE 
1 -0.00365868 -0.0021874 0.0010554 -5.17911 -5.17183 -9.53872 0.000233273 -0.011427 -0.0278535 -3.51528 
2 -0.00396227 -0.00207747 2.5543 -5.17839 -5.17103 -9.53774 -0.00017856 -0.0136042 -0.0266648 -3.51527 
3 -0.00429311 -0.00191292 5.10762 -5.17318 -5.16611 -9.52703 -0.000836115 -0.0139382 -0.025388 -3.51532 
4 -0.00463746 -0.0016981 7.66113 -5.16268 -5.15648 -9.50512 -0.00173001 -0.0119007 -0.0241739 -3.51541 
5 -0.00497074 -0.00144716 10.215 -5.14592 -5.14127 -9.46989 -0.00277331 -0.00735966 -0.023034 -3.51557 
6 -0.00526067 -0.00118014 12.7694 -5.1218 -5.11932 -9.41868 -0.0038169 -0.00066714 -0.0218323 -3.5158 
7 -0.00547337 -0.000917274 15.3246 -5.08899 -5.08906 -9.34831 -0.00469624 0.00740713 -0.020359 -3.51612 
8 -0.00558034 -0.000674223 17.8809 -5.04564 -5.04834 -9.2549 -0.00528358 0.0158715 -0.0184409 -3.51655 
9 -0.00556409 -0.000459691 20.4386 -4.98906 -4.99412 -9.13376 -0.00552015 0.0237475 -0.0160263 -3.5171 
10 -0.00542064 -0.000275894 22.998 -4.91538 -4.92227 -8.97941 -0.00542067 0.0302605 -0.0132161 -3.5178 
11 -0.00515894 -0.000120874 25.5597 -4.81932 -4.82742 -8.78624 -0.00505685 0.0349442 -0.0102433 -3.51866 
12 -0.00479769 8.57929e-06 28.124 -4.69451 -4.70316 -8.55011 -0.0045303 0.0376613 -0.00741431 -3.51969 
13 -0.00436075 0.000114596 30.6914 -4.53497 -4.54363 -8.27145 -0.00394394 0.0385589 -0.00502951 -3.52089 
14 -0.00387217 0.000197292 33.262 -4.33897 -4.34722 -7.95902 -0.00337925 0.0379872 -0.00330287 -3.5222 
15 -0.00335206 0.00025519 35.8358 -4.11424 -4.12183 -7.63032 -0.00288474 0.0364053 -0.00231129 -3.52347 
16 -0.00281409 0.000286138 38.4125 -3.87677 -3.88357 -7.30373 -0.0024759 0.0342825 -0.00200104 -3.52458 
17 -0.00226441 0.000287653 40.9917 -3.63813 -3.6441 -6.98572 -0.00214151 0.0320278 -0.00224795 -3.52548 
18 -0.00169921 0.000256786 43.5731 -3.39929 -3.4044 -6.66353 -0.00184767 0.0300316 -0.00291064 -3.5262 
19 -0.00110066 0.000189735 46.1569 -3.13506 -3.13919 -6.30039 -0.00152512 0.0286699 -0.00383793 -3.52695 
20 -0.000439512 7.85751e-05 48.7435 -2.75184 -2.75404 -5.86098 -0.000846988 0.0277652 -0.00497841 -3.52782 
21 5.95933e-07 -4.11185e-08 51.3317 -1.92307 -1.92291 -4.91976 7.89591e-05 -0.00140267 0.000245604 -3.53203 
22 4.01304e-07 -1.42881e-06 53.9138 -0.851904 -0.851913 -8.91777 8.72145e-07 -2.87202e-05 -7.1358e-05 -3.48169 
23 8.71386e-07 -1.98378e-06 56.3885 1.68559 1.6856 1.87688 -1.55536e-05 2.40451e-05 -2.75932e-07 -2.55581 
24 -1.23087e-07 -1.12453e-06 -53.8876 -2.60695 -2.60698 -6.5496 -1.84894e-05 1.0634e-05 -3.24899e-05 -3.40183 
25 1.02659e-07 -1.55837e-06 -51.3239 -2.07913 -2.0793 -5.57932 -0.000268725 0.000671526 0.00144016 -3.52873 
26 -0.00017131 -0.000410156 -48.7462 -2.69419 -2.69161 -6.14719 0.00353758 -0.010867 -0.0256158 -3.5264 
27 -0.00039877 -0.000988137 -46.1646 -3.02129 -3.01668 -6.34716 0.00626082 -0.00905373 -0.0239728 -3.52678 
28 -0.000565286 -0.0014292 -43.5822 -3.30293 -3.29653 -6.60755 0.00687691 -0.0057507 -0.0227725 -3.52635 
29 -0.000674126 -0.00176684 -41.0007 -3.55861 -3.5502 -6.89602 0.00680636 -0.00211715 -0.0219833 -3.52575 
30 -0.000744761 -0.00201986 -38.4209 -3.80918 -3.79877 -7.20497 0.0062684 0.00154358 -0.0214406 -3.52491 
31 -0.000799141 -0.00219964 -35.8434 -4.05589 -4.04369 -7.53036 0.00537615 0.00491276 -0.0210561 -3.52385 
32 -0.000859665 -0.00231603 -33.2686 -4.28929 -4.27577 -7.861 0.00425974 0.00764184 -0.0208457 -3.52261 
33 -0.000946231 -0.00238021 -30.6968 -4.49628 -4.48208 -8.17925 0.00308394 0.0094578 -0.0208803 -3.52132 
34 -0.00107249 -0.00240478 -28.1283 -4.66832 -4.65413 -8.46794 0.00201832 0.0102618 -0.021229 -3.5201 
35 -0.00124318 -0.00240229 -25.5629 -4.80442 -4.79083 -8.71649 0.00119158 0.0101645 -0.0219112 -3.51901 
36 -0.00145374 -0.00238369 -23.0002 -4.90862 -4.89608 -8.92196 0.00065879 0.00942835 -0.0228791 -3.5181 
37 -0.0016925 -0.00235757 -20.4399 -4.98684 -4.97555 -9.08674 0.000397521 0.00834269 -0.0240388 -3.51736 
38 -0.00194475 -0.00233047 -17.8814 -5.04486 -5.03485 -9.21589 0.000332201 0.0070929 -0.0252848 -3.51677 
39 -0.00219716 -0.00230742 -15.3244 -5.0876 -5.0787 -9.31522 0.000372138 0.00568816 -0.0265188 -3.51632 
40 -0.00244137 -0.00229193 -12.7687 -5.11887 -5.11087 -9.39027 0.000444149 0.00398023 -0.0276435 -3.51597 
41 -0.00267563 -0.00228475 -10.2138 -5.14156 -5.13417 -9.44584 0.000506221 0.00176338 -0.0285462 -3.51571 
42 -0.00290455 -0.00228219 -7.65952 -5.15775 -5.1507 -9.48589 0.000540084 -0.00108885 -0.0290973 -3.51553 
43 -0.0031374 -0.00227492 -5.10573 -5.16891 -5.16193 -9.51347 0.000530912 -0.00450368 -0.0291809 -3.5154 
44 -0.00338545 -0.00224873 -2.55225 -5.17591 -5.16881 -9.53069 0.00044723 -0.00814525 -0.0287469 -3.51532 
45 0.0924544 2.15789 1.27692 -4.05619 -5.14039 -3.83752 -0.0511532 -0.452108 0.0036503 -3.52907 
46 0.0657796 2.15902 3.83011 -4.05014 -5.13954 -3.8317 -0.0397468 -0.45233 -0.00548213 -3.52908 
47 0.0391027 2.15987 6.38343 -4.04482 -5.13635 -3.81756 -0.0283163 -0.450971 -0.0150255 -3.5291 
48 0.0124749 2.16041 8.93704 -4.04098 -5.13061 -3.79384 -0.0166427 -0.448076 -0.0252418 -3.52913 
49 -0.014049 2.16063 11.4911 -4.03959 -5.12194 -3.75889 -0.00456493 -0.444027 -0.0363215 -3.52917 
50 -0.0404203 2.1605 14.0458 -4.04158 -5.1096 -3.71064 0.0079002 -0.439414 -0.0484505 -3.52922 
51 -0.0666033 2.16001 16.6015 -4.04743 -5.09237 -3.64647 0.0204993 -0.434853 -0.0618798 -3.52928 
52 -0.0925799 2.15915 19.1584 -4.05682 -5.06834 -3.56304 0.0327548 -0.430831 -0.0769422 -3.52935 
53 -0.11835 2.15793 21.7168 -4.06828 -5.03458 -3.45628 0.044024 -0.427621 -0.0939772 -3.52943 
54 -0.143928 2.15636 24.2772 -4.07861 -4.98684 -3.32156 0.0535813 -0.425272 -0.113117 -3.52953 
55 -0.169339 2.15449 26.8399 -4.082 -4.91914 -3.15451 0.0607277 -0.423642 -0.13388 -3.52967 
56 -0.194613 2.15238 29.4055 -4.06902 -4.82377 -2.95266 0.0649676 -0.422443 -0.15461 -3.52986 
57 -0.219771 2.15011 31.9742 -4.02634 -4.69258 -2.7181 0.0662933 -0.421278 -0.17217 -3.53012 
58 -0.244818 2.1478 34.5463 -3.94013 -4.52119 -2.45983 0.0654978 -0.419651 -0.183063 -3.53047 
59 -0.269732 2.14548 37.1216 -3.8048 -4.31498 -2.19207 0.0641345 -0.416981 -0.187006 -3.53087 
60 -0.294472 2.14307 39.6996 -3.62864 -4.08863 -1.92629 0.0637684 -0.412798 -0.189036 -3.53128 
61 -0.319013 2.1405 42.2798 -3.42357 -3.85289 -1.66281 0.0651138 -0.407195 -0.19525 -3.53164 
62 -0.343391 2.13767 44.8621 -3.19606 -3.6046 -1.39027 0.067415 -0.400739 -0.212218 -3.53193 
63 -0.367766 2.13483 47.4464 -2.91617 -3.29365 -1.10607 0.067339 -0.395858 -0.231653 -3.53223 
64 -0.392512 2.13371 50.032 -2.4344 -2.80056 -0.495186 0.0605365 -0.414718 -0.201059 -3.53323 
65 -0.418483 2.1304 52.6263 -1.76577 -2.00552 -0.561409 0.0455073 -0.308931 -0.729997 -3.52457 
66 -0.44812 2.14653 55.1778 6.97659 7.73843 2.4309 0.0330153 -0.597322 1.77022 -3.02528 
67 0.649859 2.05055 -55.162 1.38944 0.842384 -0.678373 -0.188253 -0.0991978 1.20761 -3.26036 
68 0.633027 2.08274 -52.6122 -1.11196 -2.21867 -0.457719 -0.374491 -0.489286 -0.161473 -3.53566 
69 0.607028 2.08678 -50.0319 -2.0026 -2.5547 -0.871229 -0.170288 -0.429451 0.081537 -3.53399 
70 0.581328 2.08836 -47.4532 -2.63754 -3.07106 -1.2062 -0.12709 -0.403161 0.155551 -3.5329 
71 0.556531 2.09194 -44.8711 -3.05885 -3.44036 -1.36624 -0.106826 -0.39754 0.198974 -3.53225 
72 0.531919 2.09627 -42.2892 -3.35774 -3.72586 -1.59521 -0.0983405 -0.401298 0.210544 -3.53183 
73 0.507198 2.10081 -39.7085 -3.60139 -3.98185 -1.8459 -0.0971946 -0.40669 0.216459 -3.53141 
74 0.482272 2.10544 -37.1298 -3.80364 -4.21989 -2.10959 -0.101634 -0.41164 0.219945 -3.53098 
75 0.457138 2.11016 -34.5537 -3.96135 -4.43491 -2.37914 -0.110013 -0.415774 0.218667 -3.53055 
76 0.431827 2.11495 -31.9806 -4.07023 -4.61711 -2.64246 -0.120004 -0.419397 0.20992 -3.53018 
77 0.406367 2.11978 -29.4108 -4.13362 -4.76128 -2.88584 -0.129076 -0.422805 0.193693 -3.52988 
78 0.380771 2.12454 -26.8442 -4.1619 -4.86952 -3.09923 -0.135373 -0.426033 0.172571 -3.52965 
79 0.355047 2.12913 -24.2805 -4.16701 -4.94821 -3.27839 -0.138081 -0.428991 0.149615 -3.52948 
80 0.3292 2.13347 -21.7193 -4.15884 -5.00454 -3.42386 -0.137208 -0.431613 0.127079 -3.52936 
81 0.303243 2.13752 -19.1602 -4.14439 -5.04475 -3.53902 -0.133207 -0.433919 0.106211 -3.52927 
82 0.277188 2.14124 -16.6027 -4.1281 -5.07364 -3.62831 -0.12668 -0.436019 0.0874958 -3.52921 
83 0.251046 2.14463 -14.0466 -4.11249 -5.09462 -3.69629 -0.118217 -0.438086 0.0709676 -3.52916 
84 0.224822 2.14766 -11.4914 -4.09877 -5.11002 -3.74704 -0.108336 -0.440297 0.0564452 -3.52912 
85 0.198516 2.15036 -8.937 -4.08726 -5.12139 -3.784 -0.0974848 -0.442767 0.0436676 -3.5291 
86 0.172126 2.15271 -6.3831 -4.07774 -5.12969 -3.80992 -0.0860507 -0.44547 0.0323444 -3.52908 
87 0.145648 2.15474 -3.82957 -4.06972 -5.13548 -3.82678 -0.0743671 -0.4482 0.0221534 -3.52907 
88 0.119086 2.15646 -1.27627 -4.06268 -5.13902 -3.83581 -0.0626889 -0.450576 0.0127253 -3.52906 
89 0.215421 4.32456 -0.00016936 -3.39659 -4.7467 -3.30057 -0.0738785 -0.932378 0.0380233 -3.53364 
90 0.285232 6.49698 1.27574 -2.77678 -4.3487 -2.86385 -0.0791706 -1.3602 0.0489395 -3.53381 
91 2.20518 2.73546 0.000427383 -3.39183 -3.54844 -3.05214 -0.416451 -0.329029 0.248117 -3.52983 
92 2.17136 2.76217 2.55357 -3.37645 -3.55697 -3.05091 -0.416366 -0.3353 0.240216 -3.52983 
93 2.29131 4.92679 1.27597 -2.72851 -3.57425 -2.73152 -0.346175 -0.805304 0.01231 -3.53335 
94 4.28803 3.33543 1.27761 -3.40192 -2.90208 -2.7284 -0.498822 -0.212859 0.760435 -3.53335 
95 0.162296 4.327 2.5528 -3.38587 -4.74726 -3.29787 -0.0593043 -0.932686 0.0198956 -3.53365 
96 0.109168 4.32879 5.10583 -3.37768 -4.74742 -3.28891 -0.0443783 -0.931186 0.00143538 -3.53366 
97 0.205618 6.50005 3.82843 -2.76478 -4.35018 -2.85841 -0.0612518 -1.35888 0.0229638 -3.53382 
98 2.23075 4.95429 3.82901 -2.71276 -3.58263 -2.72735 -0.336704 -0.806818 -0.00369917 -3.53335 
99 0.126097 6.5021 6.38125 -2.75801 -4.35292 -2.84811 -0.0426063 -1.35616 -0.00359411 -3.53383 
100 4.24675 3.3873 3.83069 -3.38487 -2.91496 -2.72318 -0.505276 -0.227543 0.753893 -3.53336 
101 2.13718 2.78843 5.10681 -3.36177 -3.56666 -3.04302 -0.41478 -0.340706 0.232384 -3.52983 
102 2.10269 2.8142 7.66027 -3.34846 -3.57784 -3.0276 -0.411178 -0.345382 0.224441 -3.52983 
103 2.16989 4.98095 6.38221 -2.70002 -3.59265 -2.71677 -0.325118 -0.807291 -0.0198145 -3.53336 
104 4.20481 3.43856 6.38393 -3.36949 -2.93059 -2.71172 -0.509394 -0.24175 0.747109 -3.53336 
105 0.0561209 4.32993 7.65907 -3.37356 -4.74736 -3.273 -0.0288504 -0.928115 -0.017762 -3.53368 
106 0.0032338 4.33038 10.2127 -3.37524 -4.74718 -3.24918 -0.012605 -0.924066 -0.0380784 -3.53369 
107 0.0467722 6.50311 8.93432 -2.7585 -4.35726 -2.83247 -0.0232568 -1.35277 -0.0312716 -3.53383 
108 2.1088 5.00672 8.93569 -2.69172 -3.60447 -2.69893 -0.311092 -0.807181 -0.0364936 -3.53336 
109 -0.0322772 6.50305 11.4878 -2.76786 -4.36347 -2.81076 -0.00342089 -1.34957 -0.0606557 -3.53382 
110 4.16224 3.48917 8.93747 -3.35664 -2.94927 -2.69318 -0.510689 -0.255856 0.7399 -3.53336 
111 2.06794 2.83945 10.2141 -3.33744 -3.59067 -3.00338 -0.405057 -0.349672 0.216144 -3.52983 
112 2.03298 2.86416 12.7685 -3.32966 -3.60503 -2.96866 -0.396039 -0.354127 0.207143 -3.52982 
113 2.04755 5.03158 11.4896 -2.68926 -3.61808 -2.67271 -0.294469 -0.807168 -0.054343 -3.53336 
114 4.1191 3.53909 11.4914 -3.34721 -2.97124 -2.66636 -0.508736 -0.270412 0.732003 -3.53336 
115 -0.0494282 4.33012 12.7668 -3.38423 -4.74677 -3.21619 0.00425554 -0.919781 -0.0599357 -3.5337 
116 -0.101823 4.32915 15.3217 -3.40147 -4.7457 -3.17223 0.0214053 -0.915917 -0.0838449 -3.53371 
117 -0.111003 6.50189 14.0419 -2.78699 -4.37157 -2.78184 0.0165325 -1.34728 -0.0924225 -3.5338 
118 1.98617 5.05549 14.0442 -2.69375 -3.63317 -2.63667 -0.275263 -0.808037 -0.0741179 -3.53336 
119 -0.189387 6.49964 16.5968 -2.81612 -4.38127 -2.74395 0.0361574 -1.3463 -0.127341 -3.53376 
120 4.07541 3.5883 14.0461 -3.34199 -2.9965 -2.62966 -0.503206 -0.28613 0.72302 -3.53336 
121 1.99784 2.88831 15.3237 -3.32584 -3.62041 -2.92135 -0.383921 -0.359439 0.196956 -3.52981 
122 1.96253 2.91186 17.8799 -3.3262 -3.63587 -2.85886 -0.368646 -0.366342 0.184984 -3.52979 
123 1.92469 5.07843 16.5996 -2.70579 -3.64914 -2.58891 -0.2536 -0.810549 -0.0966839 -3.53335 
124 4.03119 3.63677 16.6015 -3.3414 -3.02483 -2.58109 -0.493855 -0.303832 0.712384 -3.53336 
125 -0.153933 4.32744 17.8776 -3.42715 -4.74297 -3.11486 0.0383497 -0.912891 -0.110405 -3.53371 
126 -0.205759 4.32501 20.4348 -3.46065 -4.73688 -3.04078 0.0544967 -0.910819 -0.140221 -3.5337 
127 -0.267432 6.49626 19.1527 -2.85491 -4.3917 -2.69457 0.0550043 -1.34667 -0.166222 -3.53371 
128 1.8631 5.10036 19.1561 -2.72541 -3.66499 -2.52698 -0.229655 -0.815363 -0.122937 -3.53334 
129 -0.345151 6.49178 21.7099 -2.90239 -4.40122 -2.6301 0.0726718 -1.34809 -0.209768 -3.53364 
130 3.98643 3.68445 19.158 -3.34543 -3.05565 -2.51821 -0.480491 -0.324383 0.699375 -3.53334 
131 1.92706 2.93481 20.4374 -3.33021 -3.64987 -2.7781 -0.350262 -0.375513 0.170574 -3.52976 
132 1.89142 2.95715 22.9967 -3.33622 -3.65995 -2.67544 -0.328917 -0.387438 0.153153 -3.52973 
133 1.80141 5.12127 21.7141 -2.7519 -3.6791 -2.44786 -0.20363 -0.82298 -0.153655 -3.53331 
134 3.94113 3.73132 21.716 -3.35335 -3.08782 -2.43814 -0.462997 -0.348574 0.683177 -3.53332 
135 -0.257319 4.32187 22.9936 -3.50021 -4.72456 -2.94579 0.06921 -0.90955 -0.1737 -3.53369 
136 -0.308636 4.31806 25.5544 -3.54237 -4.7015 -2.82497 0.0818319 -0.908755 -0.210657 -3.5337 
137 -0.42256 6.48623 24.2687 -2.95671 -4.40683 -2.54586 0.0888187 -1.34996 -0.258267 -3.53357 
138 1.73959 5.14117 24.2738 -2.78358 -3.68891 -2.34801 -0.175815 -0.833693 -0.189231 -3.53328 
139 -0.499674 6.47969 26.8296 -3.01434 -4.40354 -2.43604 0.103117 -1.35152 -0.311043 -3.53351 
140 3.89529 3.77736 24.2756 -3.3634 -3.11927 -2.33762 -0.441427 -0.376932 0.663057 -3.53329 
141 1.85561 2.97889 25.558 -3.34088 -3.66228 -2.54706 -0.304949 -0.402201 0.132512 -3.52968 
142 1.81965 3.00008 28.1218 -3.33819 -3.65084 -2.38965 -0.279105 -0.419094 0.10931 -3.52962 
143 1.67763 5.16008 26.8357 -2.81704 -3.69042 -2.22374 -0.146781 -0.847433 -0.229181 -3.53323 
144 3.84894 3.82258 26.8375 -3.37219 -3.14631 -2.21325 -0.41625 -0.409321 0.638712 -3.53324 
145 -0.359741 4.31368 28.1178 -3.58074 -4.66086 -2.67338 0.0916967 -0.908048 -0.249688 -3.53373 
146 -0.410662 4.30887 30.684 -3.60446 -4.59308 -2.48767 0.098216 -0.90704 -0.287475 -3.53381 
147 -0.576506 6.47232 29.393 -3.06874 -4.38335 -2.29447 0.115137 -1.35211 -0.365652 -3.53348 
148 1.61558 5.17813 29.4002 -2.846 -3.67748 -2.07191 -0.117703 -0.863395 -0.271381 -3.53318 
149 -0.653068 6.4644 31.9595 -3.10841 -4.3344 -2.11635 0.124216 -1.35121 -0.417132 -3.5335 
150 3.80215 3.86703 29.4019 -3.3736 -3.16265 -2.06195 -0.388694 -0.444263 0.610903 -3.53318 
151 1.78358 3.02083 30.6886 -3.31842 -3.61683 -2.20168 -0.252867 -0.436061 0.085807 -3.52957 
152 1.74754 3.0413 33.2586 -3.26788 -3.54908 -1.98532 -0.228612 -0.449441 0.0662525 -3.52956 
153 1.55348 5.19554 31.9678 -2.85964 -3.64107 -1.89099 -0.090683 -0.879346 -0.311195 -3.53312 
154 3.75509 3.91086 31.9693 -3.35742 -3.15825 -1.88188 -0.361061 -0.478098 0.582313 -3.53311 
155 -0.46141 4.30387 33.2536 -3.59733 -4.4868 -2.26902 0.101156 -0.905196 -0.318824 -3.53397 
156 -0.511958 4.29887 35.8266 -3.54129 -4.33307 -2.02611 0.101104 -0.901547 -0.339153 -3.53423 
157 -0.729355 6.45633 34.5294 -3.11546 -4.24114 -1.90199 0.129546 -1.34828 -0.458383 -3.53363 
158 1.49151 5.21266 34.5386 -2.8415 -3.5691 -1.68274 -0.0686553 -0.890966 -0.34156 -3.53309 
159 -0.805307 6.44846 37.103 -3.06833 -4.08888 -1.66156 0.130841 -1.34193 -0.483676 -3.53389 
160 3.70806 3.95431 34.54 -3.30825 -3.11911 -1.67421 -0.336537 -0.504897 0.557947 -3.53308 
161 1.7117 3.06171 35.832 -3.17235 -3.43755 -1.74782 -0.209002 -0.455259 0.0552273 -3.52962 
162 1.6762 3.08217 38.4085 -3.02604 -3.28042 -1.49998 -0.195144 -0.453021 0.0524177 -3.52978 
163 1.42989 5.22988 37.1129 -2.77239 -3.44881 -1.45407 -0.0542795 -0.892891 -0.356456 -3.53314 
164 3.66142 3.99766 37.1141 -3.20775 -3.03089 -1.44564 -0.317918 -0.51916 0.543013 -3.53313 
165 -0.562231 4.29395 38.4028 -3.42723 -4.13423 -1.77417 0.0997499 -0.894837 -0.349935 -3.53458 
166 -0.612141 4.28895 40.9816 -3.26255 -3.90635 -1.52566 0.0993374 -0.884461 -0.360115 -3.53492 
167 -0.8808 6.44091 39.6798 -2.95523 -3.87722 -1.41505 0.129374 -1.33036 -0.496046 -3.53425 
168 1.36886 5.2474 39.6902 -2.64161 -3.27552 -1.21687 -0.0479191 -0.883754 -0.359069 -3.53331 
169 -0.955727 6.43339 42.259 -2.78446 -3.62631 -1.1803 0.12788 -1.31346 -0.508212 -3.53461 
170 3.61543 4.04107 39.6913 -3.04553 -2.88855 -1.20854 -0.305599 -0.52201 0.536165 -3.5333 
171 1.64104 3.1026 40.9876 -2.83725 -3.08662 -1.24957 -0.185345 -0.447895 0.0498836 -3.53 
172 1.60614 3.12286 43.5687 -2.61589 -2.86429 -0.994307 -0.177072 -0.446357 0.0393889 -3.53027 
173 1.30846 5.26508 42.2698 -2.45554 -3.05843 -0.981286 -0.0467366 -0.869977 -0.363746 -3.53355 
174 3.57001 4.08445 42.2709 -2.82895 -2.70056 -0.974734 -0.297387 -0.52319 0.526584 -3.53354 
175 -0.66167 4.28367 43.5624 -3.05843 -3.65995 -1.28018 0.101049 -0.871214 -0.37803 -3.53523 
176 -0.710989 4.2781 46.1447 -2.82683 -3.39336 -1.018 0.104121 -0.85728 -0.408946 -3.53549 
177 -1.03015 6.42569 44.8395 -2.56313 -3.34337 -0.96425 0.127787 -1.29351 -0.525345 -3.53495 
178 1.24856 5.28276 44.851 -2.22144 -2.80253 -0.748895 -0.0489646 -0.859985 -0.381921 -3.53386 
179 -1.10443 6.41816 47.4204 -2.29849 -3.01768 -0.779326 0.130003 -1.27514 -0.537461 -3.53528 
180 3.52498 4.12774 44.852 -2.56335 -2.47449 -0.749975 -0.290627 -0.531562 0.505758 -3.53383 
181 1.57129 3.14294 46.1516 -2.36657 -2.61629 -0.716702 -0.16994 -0.455905 0.012758 -3.53054 
182 1.53636 3.16327 48.7364 -2.09019 -2.36099 -0.345979 -0.182725 -0.478773 -0.0257169 -3.53015 
183 1.1887 5.30045 47.4331 -1.94588 -2.50561 -0.51801 -0.062858 -0.866558 -0.426431 -3.53411 
184 3.48005 4.171 47.4338 -2.24255 -2.22062 -0.541888 -0.28531 -0.557906 0.462423 -3.53403 
185 -0.760608 4.27328 48.7285 -2.6041 -3.07517 -0.672107 0.0974613 -0.849715 -0.413026 -3.53515 
186 -0.811621 4.26877 51.3169 -1.98848 -2.35116 0.310474 0.0838834 -0.841704 -0.653448 -3.53805 
187 -1.17889 6.41384 50.0002 -2.05973 -2.54266 -0.336633 0.0873652 -1.28006 -0.616629 -3.53572 
188 1.12775 5.31799 50.0156 -1.56907 -2.0788 -0.0206206 -0.110967 -0.945825 -0.595045 -3.53485 
189 -1.25707 6.40546 52.5877 -1.61235 -2.48689 0.643296 0.175758 -1.31617 -0.613148 -3.53282 
190 3.43505 4.21346 50.0156 -1.75823 -1.85271 -0.0377429 -0.309216 -0.668225 0.314391 -3.53491 
191 1.50027 3.18358 51.3264 -1.43157 -1.70132 0.658638 -0.172625 -0.54836 -0.133368 -3.53273 
192 1.46587 3.20964 53.9052 0.0267041 0.953995 -0.795861 0.566309 -0.560982 0.138975 -3.37565 
193 1.06597 5.33731 52.6041 -1.24921 -1.89855 0.441475 -0.23697 -0.801327 -0.410828 -3.52779 
194 3.38747 4.26008 52.6041 -1.41016 -1.71356 0.389825 -0.390658 -0.639448 0.587317 -3.52746 
195 -0.866323 4.2769 53.8949 -0.0508712 -0.206135 -1.18049 0.0793773 -1.26166 1.02744 -3.38132 
196 1.3298 4.1174 -56.3442 5.06942 2.90559 1.60242 -1.25473 -0.273892 0.110264 -2.79034 
197 -1.33605 6.40133 55.1665 4.18005 2.79745 1.28995 0.319922 -1.5232 0.19788 -3.26107 
198 1.00488 5.36129 55.1754 5.64208 6.63186 2.70774 0.369862 -0.636459 -0.0326173 -3.15047 
199 1.98371 6.26223 -55.1334 6.93988 9.11553 2.92917 0.134187 -0.847907 -0.525657 -3.02309 
200 3.34328 4.30996 55.1754 5.53065 7.35767 2.86911 0.118704 -0.278626 0.562636 -3.15115 
201 2.87095 2.09325 -56.362 4.04253 6.0065 1.88101 -3.16453 0.252644 0.34179 -2.79939 
202 2.84551 2.1252 -53.8874 0.165016 0.7633 -3.02646 -0.98211 -0.732816 -0.162365 -3.51266 
203 3.53831 4.21674 -55.1525 6.03166 6.27392 1.75937 0.302437 -1.21951 -0.0444716 -3.1433 
204 5.07312 2.13635 -55.1525 6.04997 7.03887 2.00316 0.446065 -0.528119 0.0805368 -3.14511 
205 1.29262 4.16451 -53.8815 0.86127 -0.348237 -3.67504 -0.408878 -0.573881 0.839002 -3.51412 
206 1.24176 4.17585 -51.3147 -1.28677 -1.91097 -0.373615 -0.214932 -0.880573 0.22013 -3.53903 
207 1.90264 6.26187 -52.5941 -0.917833 -1.4568 -0.573024 -0.184181 -1.16804 0.819996 -3.52792 
208 3.4607 4.22944 -52.6036 -0.748872 -0.925831 0.0954516 -0.677537 -0.496072 0.191364 -3.53019 
209 1.82403 6.27282 -50.0101 -1.64247 -2.32526 -0.262063 -0.200436 -1.2816 0.433096 -3.53673 
210 5.01221 2.17771 -52.6036 -1.34184 -0.348563 0.0546273 -0.502576 0.0191959 0.991503 -3.52952 
211 2.80522 2.14769 -51.32 -1.10366 -0.946844 -0.112602 -0.278075 -0.33301 0.261771 -3.53414 
212 2.77226 2.17461 -48.7405 -1.96836 -1.83651 -0.545284 -0.29161 -0.223524 0.33813 -3.53087 
213 3.40036 4.25787 -50.02 -1.43126 -1.65375 -0.138763 -0.408357 -0.708749 0.286403 -3.53497 
214 4.971 2.23184 -50.02 -1.84402 -1.27388 -0.113545 -0.296353 0.0209557 0.836018 -3.535 
215 1.18965 4.18043 -48.7355 -2.17777 -2.7554 -0.78544 -0.180387 -0.85007 0.284285 -3.5364 
216 1.13972 4.18651 -46.154 -2.63683 -3.1911 -0.973587 -0.165219 -0.833635 0.402216 -3.53604 
217 1.74858 6.27865 -47.4305 -2.10017 -2.83271 -0.673009 -0.213706 -1.24114 0.546462 -3.53588 
218 3.345 4.2875 -47.4411 -1.89785 -2.20776 -0.56121 -0.301216 -0.639238 0.336034 -3.53414 
219 1.67464 6.29044 -44.8494 -2.46952 -3.1909 -0.861552 -0.201068 -1.2447 0.60472 -3.53533 
220 4.9348 2.28446 -47.4403 -2.32154 -1.78815 -0.540523 -0.212372 0.105891 0.865032 -3.53419 
221 2.74198 2.20191 -46.1593 -2.3642 -2.26777 -0.738521 -0.232031 -0.161368 0.392735 -3.53074 
222 2.71359 2.23054 -43.5775 -2.67648 -2.59067 -0.950025 -0.216225 -0.149989 0.412849 -3.53037 
223 3.29148 4.31968 -44.8604 -2.23363 -2.57299 -0.716534 -0.260885 -0.625199 0.371303 -3.53392 
224 4.90189 2.33752 -44.8595 -2.65673 -2.14334 -0.721803 -0.178369 0.14332 0.8962 -3.53392 
225 1.09055 4.19505 -43.572 -2.97539 -3.51142 -1.20163 -0.153034 -0.841536 0.4274 -3.53553 
226 1.04128 4.20428 -40.9908 -3.23499 -3.78667 -1.44292 -0.151088 -0.854547 0.433721 -3.53509 
227 1.60091 6.30392 -42.2683 -2.75172 -3.49739 -1.08876 -0.200701 -1.26244 0.620088 -3.53483 
228 3.23889 4.35332 -42.2794 -2.50701 -2.86953 -0.916605 -0.24408 -0.627565 0.388802 -3.5336 
229 1.52671 6.31808 -39.6884 -2.96228 -3.76464 -1.33272 -0.207816 -1.28151 0.623508 -3.53438 
230 4.87051 2.39145 -42.2785 -2.93996 -2.42579 -0.927533 -0.167853 0.154965 0.921119 -3.5336 
231 2.68575 2.2599 -40.9963 -2.93237 -2.8521 -1.18046 -0.213803 -0.148018 0.426576 -3.53006 
232 2.658 2.28984 -38.4167 -3.14583 -3.06703 -1.42294 -0.218836 -0.147224 0.437882 -3.52981 
233 3.18653 4.38801 -39.6994 -2.7242 -3.1096 -1.1406 -0.238853 -0.632468 0.399031 -3.53333 
234 4.8397 2.44634 -39.6985 -3.17677 -2.64378 -1.15145 -0.168632 0.159677 0.942595 -3.53333 
235 0.991635 4.21378 -38.4113 -3.43435 -4.03113 -1.69412 -0.156356 -0.866859 0.434605 -3.53468 
236 0.941561 4.22348 -35.8343 -3.5752 -4.24158 -1.94996 -0.165984 -0.876715 0.429089 -3.53431 
237 1.45188 6.33274 -37.1107 -3.10437 -3.98828 -1.58503 -0.218686 -1.29727 0.618223 -3.53398 
238 3.13415 4.42364 -37.1215 -2.88562 -3.29329 -1.37473 -0.242363 -0.638779 0.401118 -3.53314 
239 1.37649 6.34791 -34.5362 -3.17902 -4.15728 -1.83205 -0.229064 -1.30928 0.599246 -3.53367 
240 4.80919 2.5022 -37.1205 -3.36423 -2.80025 -1.38427 -0.17898 0.159326 0.956298 -3.53314 
241 2.63025 2.32033 -35.8394 -3.31587 -3.23589 -1.66969 -0.230763 -0.149039 0.443535 -3.52963 
242 2.60248 2.3513 -33.2649 -3.43797 -3.3566 -1.91036 -0.24937 -0.156827 0.439684 -3.52955 
243 3.08168 4.46009 -34.5463 -2.98916 -3.41932 -1.60535 -0.253933 -0.649791 0.389828 -3.53306 
244 4.77891 2.5589 -34.5453 -3.4971 -2.89727 -1.61394 -0.199037 0.14894 0.957209 -3.53306 
245 0.891128 4.2334 -33.2603 -3.65704 -4.4091 -2.19903 -0.176612 -0.884385 0.413084 -3.53401 
246 0.840413 4.24345 -30.6896 -3.68743 -4.53095 -2.42777 -0.185242 -0.890725 0.385521 -3.5338 
247 1.30064 6.36345 -31.9652 -3.1963 -4.26968 -2.05756 -0.235909 -1.31865 0.564229 -3.53349 
248 3.02901 4.49707 -31.9745 -3.03964 -3.49497 -1.81978 -0.271878 -0.666497 0.363993 -3.53307 
249 1.2244 6.37901 -29.3977 -3.17417 -4.33522 -2.25051 -0.2382 -1.32598 0.516714 -3.53342 
250 4.74867 2.61617 -31.9733 -3.57788 -2.94429 -1.82825 -0.227247 0.126087 0.945225 -3.53306 
251 2.5746 2.38255 -30.6937 -3.5136 -3.43343 -2.13367 -0.272878 -0.171249 0.426112 -3.52954 
252 2.54648 2.41387 -28.1258 -3.55132 -3.47691 -2.33119 -0.298364 -0.189949 0.406151 -3.52957 
253 2.97598 4.53418 -29.4059 -3.04957 -3.5343 -2.00973 -0.293216 -0.686515 0.328096 -3.53312 
254 4.71821 2.67368 -29.4046 -3.61703 -2.95666 -2.01857 -0.260238 0.093548 0.924803 -3.5331 
255 0.789455 4.25341 -28.1224 -3.68108 -4.61306 -2.62652 -0.190097 -0.896201 0.349552 -3.53368 
256 0.738267 4.26307 -25.5582 -3.65318 -4.66516 -2.79172 -0.190643 -0.900874 0.309802 -3.53362 
257 1.1478 6.39422 -26.8335 -3.13015 -4.36768 -2.40758 -0.236123 -1.33137 0.462806 -3.53342 
258 2.92242 4.57103 -26.8405 -3.03315 -3.55105 -2.17185 -0.314711 -0.706848 0.288118 -3.53318 
259 1.07084 6.40875 -24.2719 -3.07748 -4.37944 -2.53106 -0.230189 -1.33506 0.407931 -3.53347 
260 4.68721 2.73114 -26.8391 -3.62698 -2.94906 -2.18091 -0.294387 0.0562299 0.900938 -3.53316 
261 2.51797 2.44505 -25.561 -3.56219 -3.49865 -2.49899 -0.323092 -0.209966 0.383761 -3.52962 
262 2.48898 2.47595 -22.9988 -3.55611 -3.50807 -2.63698 -0.34524 -0.229162 0.361781 -3.52967 
263 2.86823 4.60734 -24.2778 -3.00223 -3.55549 -2.30625 -0.333846 -0.725429 0.248571 -3.53323 
264 4.65545 2.78836 -24.2763 -3.61849 -2.93245 -2.31499 -0.327038 0.0184257 0.877186 -3.53321 
265 0.686851 4.27225 -22.9967 -3.61553 -4.69672 -2.92457 -0.187134 -0.904768 0.270089 -3.5336 
266 0.635217 4.28083 -20.4373 -3.57588 -4.71525 -3.02886 -0.180187 -0.908031 0.23274 -3.5336 
267 0.993546 6.42238 -21.7127 -3.02466 -4.37971 -2.62588 -0.220976 -1.33759 0.355598 -3.53353 
268 2.81336 4.64295 -21.7174 -2.96524 -3.5543 -2.41509 -0.34919 -0.741329 0.211943 -3.53327 
269 0.915935 6.43499 -19.1551 -2.97642 -4.37457 -2.69751 -0.209101 -1.33959 0.307514 -3.53359 
270 4.62281 2.84522 -21.7158 -3.59958 -2.91388 -2.42293 -0.356732 -0.0171519 0.855531 -3.53325 
271 2.45947 2.50648 -20.4388 -3.54056 -3.51159 -2.74759 -0.363935 -0.24645 0.34171 -3.52971 
272 2.42942 2.5366 -17.8807 -3.52061 -3.51315 -2.83443 -0.379004 -0.261534 0.324073 -3.52975 
273 2.7578 4.67776 -19.1589 -2.92749 -3.5515 -2.50148 -0.360265 -0.75445 0.179176 -3.5333 
274 4.58923 2.90164 -19.1573 -3.57571 -2.89739 -2.50809 -0.38292 -0.0492627 0.836793 -3.53328 
275 0.583378 4.28874 -17.8797 -3.53869 -4.72602 -3.10921 -0.170527 -0.910929 0.19879 -3.5336 
276 0.531345 4.29595 -15.3234 -3.50614 -4.73247 -3.17014 -0.158854 -0.913763 0.168429 -3.53361 
277 0.838025 6.44652 -16.599 -2.93482 -4.36773 -2.75095 -0.195203 -1.34161 0.26414 -3.53365 
278 2.70156 4.71174 -16.602 -2.89198 -3.54924 -2.56887 -0.367232 -0.765159 0.15029 -3.53332 
279 0.759828 6.45694 -14.0439 -2.90019 -4.36121 -2.79034 -0.179901 -1.34406 0.225223 -3.53369 
280 4.55468 2.95758 -16.6003 -3.5503 -2.88489 -2.57413 -0.405619 -0.0776858 0.821072 -3.53331 
281 2.39885 2.56629 -15.324 -3.49938 -3.51487 -2.90139 -0.39069 -0.274589 0.308834 -3.52977 
282 2.36777 2.59554 -12.7685 -3.47862 -3.51772 -2.95212 -0.399444 -0.286005 0.295683 -3.52979 
283 2.64469 4.74489 -14.0462 -2.86006 -3.5485 -2.62058 -0.370593 -0.774 0.124838 -3.53333 
284 4.5192 3.01305 -14.0446 -3.52528 -2.87698 -2.62453 -0.425148 -0.102773 0.808076 -3.53332 
285 0.479127 4.30245 -12.7682 -3.47885 -4.73665 -3.2156 -0.145785 -0.916791 0.141387 -3.53362 
286 0.426728 4.30824 -10.2137 -3.45647 -4.73969 -3.24885 -0.131839 -0.920149 0.117195 -3.53362 
287 0.681352 6.46626 -11.4896 -2.87173 -4.35592 -2.81892 -0.163737 -1.34712 0.19018 -3.53373 
288 2.58719 4.77721 -11.4914 -2.83196 -3.54953 -2.65956 -0.37099 -0.781497 0.102203 -3.53334 
289 0.602597 6.47449 -8.93595 -2.84806 -4.35214 -2.83916 -0.147132 -1.35068 0.158315 -3.53375 
290 4.4828 3.06802 -11.4897 -3.50157 -2.87348 -2.66229 -0.441964 -0.125113 0.797331 -3.53333 
291 2.33619 2.62437 -10.2138 -3.45909 -3.52193 -2.98979 -0.405803 -0.296193 0.28422 -3.5298 
292 2.30413 2.65277 -7.65972 -3.44092 -3.52735 -3.01697 -0.4103 -0.305479 0.274048 -3.52981 
293 2.5291 4.80871 -8.93719 -2.80727 -3.55218 -2.68831 -0.369068 -0.788024 0.081758 -3.53334 
294 4.44551 3.12251 -8.93556 -3.4794 -2.8738 -2.68988 -0.456553 -0.145315 0.788314 -3.53334 
295 0.374148 4.31333 -7.65984 -3.43808 -4.74212 -3.27241 -0.117434 -0.923778 0.0953157 -3.53362 
296 0.321391 4.31773 -5.10638 -3.42254 -4.74411 -3.28818 -0.10288 -0.927379 0.0751971 -3.53363 
297 0.523571 6.48166 -6.38268 -2.8276 -4.34976 -2.85284 -0.130357 -1.35439 0.128925 -3.53377 
298 2.47043 4.83942 -6.38351 -2.78522 -3.55616 -2.70876 -0.365376 -0.793754 0.0629534 -3.53334 
299 0.444298 6.48779 -3.82971 -2.80911 -4.34851 -2.86114 -0.113508 -1.35764 0.101327 -3.53378 
300 4.40736 3.17651 -6.38189 -3.45862 -2.87727 -2.70919 -0.469341 -0.163885 0.780519 -3.53334 
301 2.27159 2.68075 -5.10609 -3.42388 -3.5337 -3.03562 -0.413397 -0.31404 0.264822 -3.52982 
302 2.23861 2.70832 -2.55275 -3.40762 -3.54074 -3.0471 -0.415411 -0.321912 0.256256 -3.52982 
303 2.41121 4.86933 -3.83018 -2.76501 -3.5612 -2.72231 -0.360286 -0.798656 0.0453397 -3.53334 
304 4.36838 3.23001 -3.82856 -3.43891 -2.88332 -2.72156 -0.480622 -0.181189 0.773503 -3.53335 
305 0.268471 4.32147 -2.55319 -3.40888 -4.74566 -3.29736 -0.0883553 -0.930445 0.0562833 -3.53363 
306 0.364826 6.49289 -1.27694 -2.79202 -4.34819 -2.86474 -0.0965119 -1.35974 0.07487 -3.5338 
307 2.35149 4.89846 -1.27706 -2.74612 -3.56719 -2.72979 -0.353928 -0.802565 0.0285587 -3.53335 
308 4.32859 3.28299 -1.27544 -3.42003 -2.8916 -2.72784 -0.490492 -0.19746 0.766902 -3.53335 
309 2.43639 7.09067 -0.000754589 -2.22121 -3.3638 -2.40272 -0.3177 -1.20932 -0.18852 -3.53289 
310 0.434649 8.66783 -0.000957206 -2.25246 -4.02074 -2.49711 -0.100108 -1.74673 0.0827947 -3.53355 