ITEM: TIMESTEP
1061
ITEM: NUMBER OF ATOMS
37664
ITEM: BOX BOUNDS ff ff ff
-100 100
-100 100
-156.15 156.15
ITEM: ATOMS id x y z v_peratom_sxx v_peratom_syy v_peratom_szz v_peratom_sxy v_peratom_sxz v_peratom_syz c_atomPE 
1 -0.00365885 -0.00218638 0.00105648 -5.17912 -5.17184 -9.53874 0.000220631 -0.0114255 -0.0278936 -3.51528 
2 -0.00396175 -0.00207679 2.55431 -5.17838 -5.17104 -9.53775 -0.000189244 -0.0135866 -0.0267034 -3.51527 
3 -0.00429168 -0.00191274 5.10762 -5.17318 -5.16612 -9.52703 -0.000842225 -0.0139138 -0.02542 -3.51532 
4 -0.00463494 -0.00169846 7.66113 -5.16269 -5.15649 -9.50512 -0.00172972 -0.0118818 -0.0241954 -3.51541 
5 -0.00496708 -0.00144801 10.215 -5.14594 -5.14127 -9.46988 -0.00276631 -0.00735778 -0.0230438 -3.51557 
6 -0.00525602 -0.00118132 12.7694 -5.12183 -5.11933 -9.41869 -0.00380441 -0.000689281 -0.021832 -3.5158 
7 -0.00546801 -0.000918628 15.3246 -5.08904 -5.08908 -9.34833 -0.0046804 0.00735974 -0.020352 -3.51612 
8 -0.00557463 -0.000675582 17.8809 -5.04571 -5.04835 -9.25493 -0.00526665 0.0158025 -0.0184306 -3.51655 
9 -0.0055584 -0.000460933 20.4386 -4.98914 -4.99413 -9.13379 -0.00550395 0.0236638 -0.0160156 -3.5171 
10 -0.0054153 -0.000276941 22.998 -4.91546 -4.92229 -8.97946 -0.00540646 0.0301699 -0.0132067 -3.5178 
11 -0.0051542 -0.000121689 25.5597 -4.81939 -4.82744 -8.78629 -0.00504533 0.0348544 -0.0102363 -3.51866 
12 -0.0047937 7.9963e-06 28.124 -4.69457 -4.70318 -8.55016 -0.00452171 0.0375786 -0.00741024 -3.51969 
13 -0.00435757 0.000114218 30.6914 -4.53503 -4.54365 -8.2715 -0.0039381 0.0384879 -0.00502822 -3.52089 
14 -0.00386977 0.000197073 33.262 -4.33901 -4.34724 -7.95906 -0.0033757 0.0379303 -0.00330375 -3.5222 
15 -0.00335036 0.000255079 35.8358 -4.11427 -4.12185 -7.63035 -0.00288283 0.0363626 -0.00231345 -3.52347 
16 -0.00281297 0.000286088 38.4125 -3.8768 -3.88358 -7.30376 -0.00247501 0.0342526 -0.00200355 -3.52458 
17 -0.00226374 0.00028763 40.9917 -3.63815 -3.6441 -6.98574 -0.00214113 0.0320084 -0.00225008 -3.52548 
18 -0.00169886 0.000256771 43.5731 -3.39931 -3.40441 -6.66355 -0.00184746 0.0300203 -0.00291192 -3.5262 
19 -0.00110051 0.000189724 46.1569 -3.13507 -3.13919 -6.3004 -0.00152492 0.0286643 -0.00383822 -3.52695 
20 -0.000439471 7.85693e-05 48.7435 -2.75184 -2.75405 -5.86098 -0.00084684 0.0277632 -0.00497794 -3.52782 
21 5.95933e-07 -4.11185e-08 51.3317 -1.92308 -1.92292 -4.91977 7.88529e-05 -0.00140292 0.000245533 -3.53203 
22 4.01304e-07 -1.42881e-06 53.9138 -0.851901 -0.85191 -8.91777 8.95191e-07 -2.84784e-05 -7.13446e-05 -3.48169 
23 8.71386e-07 -1.98378e-06 56.3885 1.68559 1.6856 1.87688 -1.53778e-05 2.38639e-05 -3.04752e-07 -2.55581 
24 -1.23087e-07 -1.12453e-06 -53.8876 -2.60696 -2.60698 -6.54961 -1.84536e-05 1.07024e-05 -3.24199e-05 -3.40183 
25 1.02659e-07 -1.55837e-06 -51.3239 -2.07912 -2.07929 -5.57929 -0.000268441 0.000677465 0.00143898 -3.52873 
26 -0.000172997 -0.000409934 -48.7462 -2.6941 -2.69155 -6.14708 0.00353583 -0.0109724 -0.0256016 -3.5264 
27 -0.000402706 -0.000987723 -46.1646 -3.02118 -3.01662 -6.34704 0.00625866 -0.00916544 -0.0239628 -3.52678 
28 -0.000570989 -0.00142878 -43.5822 -3.30281 -3.29647 -6.60742 0.00687856 -0.00588629 -0.0227689 -3.52635 
29 -0.000681429 -0.00176659 -41.0007 -3.55848 -3.55014 -6.89588 0.00681467 -0.00228268 -0.0219874 -3.52575 
30 -0.000753532 -0.00201993 -38.4209 -3.80904 -3.7987 -7.20484 0.00628553 0.001349 -0.0214535 -3.52491 
31 -0.000809147 -0.00220011 -35.8434 -4.05574 -4.04362 -7.53023 0.00540309 0.00469583 -0.0210779 -3.52385 
32 -0.000870531 -0.00231692 -33.2685 -4.28914 -4.2757 -7.86088 0.00429577 0.00741383 -0.0208748 -3.52261 
33 -0.000957458 -0.00238143 -30.6968 -4.49615 -4.48202 -8.17915 0.00312646 0.00923211 -0.0209133 -3.52132 
34 -0.00108352 -0.00240618 -28.1283 -4.6682 -4.65407 -8.46786 0.00206342 0.010051 -0.0212616 -3.5201 
35 -0.00125348 -0.00240368 -25.5629 -4.80432 -4.79079 -8.71645 0.00123502 0.00997752 -0.0219397 -3.51901 
36 -0.00146287 -0.00238487 -23.0002 -4.90856 -4.89606 -8.92194 0.00069698 0.00926968 -0.0229013 -3.5181 
37 -0.00170018 -0.0023584 -20.4398 -4.9868 -4.97554 -9.08674 0.000428055 0.00821174 -0.0240546 -3.51736 
38 -0.00195087 -0.00233088 -17.8814 -5.04485 -5.03485 -9.21591 0.000354065 0.00698529 -0.0252959 -3.51677 
39 -0.00220181 -0.00230741 -15.3244 -5.08761 -5.07871 -9.31526 0.000385526 0.00559792 -0.0265282 -3.51632 
40 -0.00244476 -0.00229152 -12.7687 -5.11889 -5.11089 -9.39032 0.000450014 0.00390249 -0.0276547 -3.51597 
41 -0.00267803 -0.00228399 -10.2138 -5.14159 -5.13419 -9.44589 0.000505786 0.00169633 -0.0285622 -3.51571 
42 -0.00290623 -0.00228116 -7.65952 -5.15778 -5.15072 -9.48594 0.000534532 -0.00114358 -0.0291202 -3.51553 
43 -0.00313855 -0.00227374 -5.10573 -5.16893 -5.16195 -9.51351 0.000521399 -0.00454228 -0.0292114 -3.5154 
44 -0.00338614 -0.00224753 -2.55225 -5.17592 -5.16883 -9.53073 0.000435168 -0.00816415 -0.0287838 -3.51532 
45 0.0924542 2.15789 1.27692 -4.05615 -5.1404 -3.83752 -0.0511607 -0.452072 0.00362154 -3.52907 
46 0.0657809 2.15902 3.83011 -4.05014 -5.13955 -3.8317 -0.0397399 -0.452296 -0.00550573 -3.52908 
47 0.0391056 2.15987 6.38343 -4.04487 -5.13636 -3.81756 -0.0282971 -0.450946 -0.0150416 -3.5291 
48 0.0124794 2.16041 8.93704 -4.04107 -5.13063 -3.79384 -0.016616 -0.448067 -0.0252503 -3.52913 
49 -0.0140434 2.16063 11.4911 -4.03971 -5.12195 -3.7589 -0.00453689 -0.444035 -0.036324 -3.52917 
50 -0.040414 2.1605 14.0458 -4.04172 -5.10961 -3.71066 0.00792456 -0.439437 -0.0484496 -3.52922 
51 -0.0665968 2.16001 16.6015 -4.04758 -5.09238 -3.6465 0.0205171 -0.434887 -0.0618777 -3.52928 
52 -0.0925736 2.15915 19.1584 -4.05696 -5.06835 -3.56307 0.0327651 -0.43087 -0.0769405 -3.52935 
53 -0.118344 2.15793 21.7168 -4.06841 -5.03459 -3.45631 0.0440273 -0.427662 -0.093977 -3.52943 
54 -0.143923 2.15636 24.2772 -4.07871 -4.98685 -3.32159 0.053579 -0.425312 -0.113118 -3.52953 
55 -0.169335 2.15449 26.8399 -4.08209 -4.91915 -3.15454 0.0607218 -0.423678 -0.133883 -3.52967 
56 -0.194609 2.15238 29.4055 -4.06908 -4.82377 -2.95269 0.0649598 -0.422472 -0.154615 -3.52986 
57 -0.219768 2.15011 31.9742 -4.02638 -4.69259 -2.71813 0.0662852 -0.4213 -0.172176 -3.53012 
58 -0.244817 2.1478 34.5463 -3.94015 -4.52119 -2.45985 0.0654909 -0.419667 -0.183069 -3.53047 
59 -0.269731 2.14548 37.1216 -3.80481 -4.31499 -2.19209 0.0641292 -0.416991 -0.187011 -3.53087 
60 -0.294471 2.14307 39.6996 -3.62865 -4.08864 -1.9263 0.0637651 -0.412804 -0.18904 -3.53128 
61 -0.319013 2.1405 42.2798 -3.42358 -3.85289 -1.66282 0.0651121 -0.407198 -0.195253 -3.53164 
62 -0.343391 2.13767 44.8621 -3.19606 -3.6046 -1.39028 0.0674146 -0.40074 -0.21222 -3.53193 
63 -0.367766 2.13483 47.4464 -2.91617 -3.29365 -1.10607 0.067339 -0.395858 -0.231654 -3.53223 
64 -0.392512 2.13371 50.032 -2.4344 -2.80056 -0.495192 0.0605361 -0.414717 -0.201059 -3.53323 
65 -0.418483 2.1304 52.6263 -1.76576 -2.00552 -0.56141 0.0455085 -0.308932 -0.729994 -3.52457 
66 -0.44812 2.14653 55.1778 6.97659 7.73843 2.4309 0.0330147 -0.597322 1.77022 -3.02528 
67 0.649859 2.05055 -55.162 1.38944 0.842382 -0.678379 -0.188253 -0.0991979 1.20761 -3.26036 
68 0.633027 2.08274 -52.6122 -1.11195 -2.21866 -0.457719 -0.374491 -0.489286 -0.161472 -3.53566 
69 0.607028 2.08678 -50.0319 -2.00259 -2.55467 -0.871186 -0.170302 -0.429467 0.0815344 -3.53399 
70 0.581325 2.08836 -47.4532 -2.63747 -3.07103 -1.20612 -0.127084 -0.403195 0.15554 -3.5329 
71 0.556527 2.09194 -44.8711 -3.05877 -3.44033 -1.36617 -0.106817 -0.397574 0.198958 -3.53225 
72 0.531914 2.09627 -42.2892 -3.35765 -3.72583 -1.59513 -0.098327 -0.401337 0.21052 -3.53183 
73 0.507191 2.10081 -39.7085 -3.60127 -3.98182 -1.84582 -0.0971762 -0.406736 0.216428 -3.53141 
74 0.482264 2.10544 -37.1298 -3.80351 -4.21986 -2.10951 -0.10161 -0.411691 0.219908 -3.53098 
75 0.457129 2.11015 -34.5537 -3.9612 -4.43487 -2.37906 -0.109986 -0.415828 0.218627 -3.53055 
76 0.431817 2.11495 -31.9806 -4.07007 -4.61708 -2.64239 -0.119976 -0.419452 0.209879 -3.53018 
77 0.406357 2.11978 -29.4108 -4.13345 -4.76125 -2.88578 -0.129051 -0.422858 0.193657 -3.52988 
78 0.380762 2.12454 -26.8442 -4.16174 -4.86949 -3.09918 -0.135355 -0.426081 0.17254 -3.52965 
79 0.355038 2.12913 -24.2805 -4.16686 -4.94819 -3.27835 -0.138071 -0.429033 0.14959 -3.52948 
80 0.329192 2.13347 -21.7193 -4.15871 -5.00452 -3.42384 -0.137208 -0.43165 0.127061 -3.52936 
81 0.303236 2.13752 -19.1602 -4.14428 -5.04475 -3.53901 -0.133217 -0.43395 0.106197 -3.52927 
82 0.277182 2.14124 -16.6027 -4.12801 -5.07364 -3.62831 -0.126699 -0.436046 0.0874841 -3.52921 
83 0.251041 2.14463 -14.0466 -4.11242 -5.09462 -3.6963 -0.118244 -0.438108 0.0709554 -3.52916 
84 0.224817 2.14766 -11.4914 -4.09871 -5.11003 -3.74705 -0.108369 -0.440313 0.0564301 -3.52912 
85 0.198512 2.15036 -8.93699 -4.0872 -5.1214 -3.78402 -0.0975202 -0.442774 0.0436481 -3.5291 
86 0.172122 2.15271 -6.3831 -4.07768 -5.1297 -3.80993 -0.0860854 -0.445465 0.03232 -3.52908 
87 0.145645 2.15474 -3.82956 -4.06966 -5.13549 -3.82679 -0.0743969 -0.448183 0.0221248 -3.52907 
88 0.119085 2.15646 -1.27627 -4.06262 -5.13903 -3.83582 -0.0627095 -0.450547 0.0126949 -3.52906 
89 0.21542 4.32456 -0.000169738 -3.39655 -4.74671 -3.30056 -0.0738778 -0.932335 0.0380053 -3.53364 
90 0.285233 6.49698 1.27574 -2.77681 -4.34872 -2.86386 -0.0791531 -1.36016 0.0489314 -3.53381 
91 2.20518 2.73546 0.000427585 -3.3918 -3.54845 -3.05216 -0.416454 -0.329014 0.24811 -3.52983 
92 2.17136 2.76217 2.55357 -3.37644 -3.55699 -3.05092 -0.416357 -0.335282 0.240212 -3.52983 
93 2.29131 4.92679 1.27597 -2.7285 -3.57427 -2.73151 -0.346162 -0.805276 0.0123132 -3.53335 
94 4.28803 3.33543 1.27761 -3.40191 -2.90209 -2.72841 -0.498816 -0.212846 0.760431 -3.53335 
95 0.162297 4.327 2.5528 -3.38589 -4.74727 -3.29787 -0.0592892 -0.932649 0.0198811 -3.53365 
96 0.109172 4.32879 5.10583 -3.37776 -4.74744 -3.28891 -0.0443537 -0.931163 0.00142566 -3.53366 
97 0.205622 6.50005 3.82843 -2.76487 -4.3502 -2.85842 -0.0612308 -1.35886 0.0229582 -3.53382 
98 2.23076 4.95429 3.82901 -2.7128 -3.58266 -2.72735 -0.336686 -0.806796 -0.00369456 -3.53335 
99 0.126103 6.5021 6.38125 -2.75815 -4.35294 -2.84813 -0.0425876 -1.35615 -0.00359764 -3.53383 
100 4.24675 3.3873 3.83069 -3.38489 -2.91498 -2.72319 -0.505264 -0.22753 0.753892 -3.53336 
101 2.13718 2.78843 5.10681 -3.3618 -3.56668 -3.04302 -0.414761 -0.340689 0.232383 -3.52983 
102 2.10269 2.8142 7.66027 -3.34852 -3.57786 -3.0276 -0.411155 -0.34537 0.224442 -3.52983 
103 2.1699 4.98095 6.38221 -2.7001 -3.59267 -2.71676 -0.325099 -0.807278 -0.0198105 -3.53336 
104 4.20481 3.43856 6.38393 -3.36954 -2.9306 -2.71172 -0.509378 -0.241738 0.74711 -3.53336 
105 0.0561261 4.32992 7.65907 -3.37368 -4.74738 -3.27301 -0.0288232 -0.92811 -0.0177673 -3.53368 
106 0.00324023 4.33038 10.2127 -3.3754 -4.74719 -3.2492 -0.0125814 -0.924077 -0.0380808 -3.53369 
107 0.0467789 6.50311 8.93433 -2.75867 -4.35728 -2.8325 -0.0232447 -1.35278 -0.031274 -3.53383 
108 2.10881 5.00672 8.93569 -2.69182 -3.60449 -2.69893 -0.311077 -0.80718 -0.0364924 -3.53336 
109 -0.03227 6.50304 11.4878 -2.76804 -4.36348 -2.81079 -0.00341714 -1.34959 -0.060658 -3.53382 
110 4.16224 3.48917 8.93747 -3.35671 -2.94929 -2.69319 -0.510674 -0.255848 0.739902 -3.53336 
111 2.06794 2.83945 10.2141 -3.33753 -3.59069 -3.00337 -0.405035 -0.349669 0.216145 -3.52983 
112 2.03298 2.86416 12.7685 -3.32976 -3.60505 -2.96866 -0.396023 -0.354134 0.207141 -3.52982 
113 2.04755 5.03158 11.4896 -2.68939 -3.61809 -2.67272 -0.294461 -0.807178 -0.0543457 -3.53336 
114 4.1191 3.53909 11.4914 -3.3473 -2.97125 -2.66636 -0.508724 -0.270411 0.732005 -3.53336 
115 -0.0494212 4.33012 12.7668 -3.3844 -4.74679 -3.21621 0.00427169 -0.919805 -0.0599369 -3.5337 
116 -0.101816 4.32915 15.3217 -3.40163 -4.74571 -3.17226 0.0214127 -0.915949 -0.0838463 -3.53371 
117 -0.110996 6.50189 14.0419 -2.78715 -4.37159 -2.78186 0.0165282 -1.34731 -0.0924254 -3.5338 
118 1.98617 5.05549 14.0442 -2.69388 -3.63318 -2.63668 -0.275262 -0.808055 -0.074125 -3.53336 
119 -0.189381 6.49964 16.5968 -2.81627 -4.38128 -2.74398 0.0361465 -1.34633 -0.127345 -3.53376 
120 4.07541 3.5883 14.0461 -3.34208 -2.99651 -2.62967 -0.5032 -0.286135 0.723021 -3.53336 
121 1.99784 2.88831 15.3237 -3.32595 -3.62042 -2.92135 -0.383912 -0.359454 0.196951 -3.52981 
122 1.96253 2.91186 17.8799 -3.32631 -3.63588 -2.85887 -0.368645 -0.366365 0.184976 -3.52979 
123 1.92469 5.07843 16.5996 -2.70591 -3.64915 -2.58892 -0.253606 -0.810574 -0.0966951 -3.53335 
124 4.03119 3.63677 16.6015 -3.3415 -3.02484 -2.5811 -0.493855 -0.303843 0.712383 -3.53335 
125 -0.153926 4.32744 17.8776 -3.4273 -4.74298 -3.11489 0.0383489 -0.912927 -0.110407 -3.53371 
126 -0.205753 4.32501 20.4348 -3.46077 -4.73689 -3.04081 0.0544893 -0.910856 -0.140225 -3.5337 
127 -0.267426 6.49626 19.1527 -2.85503 -4.39171 -2.69459 0.054989 -1.3467 -0.166226 -3.53371 
128 1.86311 5.10036 19.1561 -2.72551 -3.665 -2.527 -0.229667 -0.81539 -0.122951 -3.53334 
129 -0.345146 6.49178 21.7099 -2.90248 -4.40122 -2.63012 0.0726545 -1.34812 -0.209774 -3.53364 
130 3.98643 3.68445 19.158 -3.34552 -3.05565 -2.51823 -0.480497 -0.324398 0.699371 -3.53334 
131 1.92707 2.93481 20.4374 -3.33031 -3.64987 -2.77811 -0.350268 -0.37554 0.170563 -3.52976 
132 1.89143 2.95715 22.9967 -3.33631 -3.65996 -2.67546 -0.328929 -0.387466 0.15314 -3.52973 
133 1.80141 5.12127 21.7141 -2.75199 -3.6791 -2.44788 -0.203645 -0.823008 -0.153672 -3.53331 
134 3.94114 3.73132 21.716 -3.35343 -3.08782 -2.43815 -0.463007 -0.348593 0.683171 -3.53332 
135 -0.257314 4.32187 22.9936 -3.50031 -4.72457 -2.94582 0.0691983 -0.909584 -0.173705 -3.53369 
136 -0.308632 4.31806 25.5544 -3.54244 -4.70151 -2.825 0.0818182 -0.908783 -0.210663 -3.5337 
137 -0.422556 6.48623 24.2687 -2.95676 -4.40683 -2.54587 0.0888015 -1.34998 -0.258274 -3.53357 
138 1.73959 5.14117 24.2738 -2.78364 -3.68891 -2.34804 -0.175832 -0.833718 -0.189248 -3.53328 
139 -0.499671 6.47969 26.8296 -3.01437 -4.40354 -2.43606 0.103102 -1.35154 -0.31105 -3.53351 
140 3.8953 3.77736 24.2756 -3.36347 -3.11927 -2.33763 -0.44144 -0.376951 0.66305 -3.53329 
141 1.85562 2.97889 25.558 -3.34095 -3.66228 -2.54709 -0.304963 -0.402228 0.132497 -3.52968 
142 1.81965 3.00008 28.1218 -3.33825 -3.65084 -2.38967 -0.279121 -0.419118 0.109295 -3.52962 
143 1.67764 5.16008 26.8357 -2.81709 -3.69042 -2.22377 -0.146798 -0.847454 -0.229198 -3.53323 
144 3.84894 3.82258 26.8375 -3.37224 -3.14631 -2.21327 -0.416264 -0.409339 0.638704 -3.53324 
145 -0.359738 4.31368 28.1178 -3.58079 -4.66086 -2.6734 0.0916831 -0.90807 -0.249695 -3.53373 
146 -0.41066 4.30887 30.684 -3.60449 -4.59308 -2.48769 0.098204 -0.907055 -0.287482 -3.53381 
147 -0.576504 6.47232 29.393 -3.06875 -4.38335 -2.29448 0.115124 -1.35212 -0.365658 -3.53348 
148 1.61558 5.17813 29.4002 -2.84603 -3.67748 -2.07193 -0.117718 -0.863412 -0.271396 -3.53318 
149 -0.653067 6.4644 31.9595 -3.10841 -4.33439 -2.11636 0.124206 -1.35122 -0.417138 -3.5335 
150 3.80215 3.86703 29.4019 -3.37364 -3.16265 -2.06197 -0.388708 -0.44428 0.610894 -3.53318 
151 1.78358 3.02083 30.6886 -3.31845 -3.61683 -2.2017 -0.252883 -0.436081 0.085793 -3.52957 
152 1.74755 3.0413 33.2587 -3.26791 -3.54908 -1.98534 -0.228626 -0.449457 0.0662403 -3.52956 
153 1.55348 5.19554 31.9678 -2.85965 -3.64107 -1.89101 -0.0906954 -0.879359 -0.311208 -3.53312 
154 3.75509 3.91086 31.9693 -3.35745 -3.15825 -1.88189 -0.361074 -0.478112 0.582304 -3.53311 
155 -0.461408 4.30387 33.2536 -3.59735 -4.4868 -2.26903 0.101146 -0.905205 -0.318831 -3.53397 
156 -0.511957 4.29887 35.8266 -3.54129 -4.33307 -2.02612 0.101098 -0.901553 -0.339159 -3.53423 
157 -0.729355 6.45633 34.5294 -3.11545 -4.24114 -1.902 0.129539 -1.34828 -0.458388 -3.53363 
158 1.49151 5.21266 34.5386 -2.84151 -3.5691 -1.68275 -0.0686645 -0.890974 -0.34157 -3.53309 
159 -0.805307 6.44846 37.103 -3.06833 -4.08888 -1.66156 0.130837 -1.34193 -0.483681 -3.53389 
160 3.70806 3.95431 34.54 -3.30827 -3.11911 -1.67423 -0.336548 -0.504909 0.557939 -3.53308 
161 1.7117 3.06171 35.832 -3.17236 -3.43755 -1.74784 -0.209013 -0.45527 0.0552173 -3.52962 
162 1.6762 3.08217 38.4085 -3.02605 -3.28042 -1.5 -0.195151 -0.453029 0.05241 -3.52978 
163 1.42989 5.22988 37.1129 -2.77239 -3.44881 -1.45408 -0.0542859 -0.892896 -0.356464 -3.53314 
164 3.66142 3.99766 37.1141 -3.20776 -3.03089 -1.44565 -0.317926 -0.519168 0.543007 -3.53313 
165 -0.562231 4.29395 38.4028 -3.42723 -4.13423 -1.77417 0.0997457 -0.89484 -0.34994 -3.53458 
166 -0.61214 4.28895 40.9816 -3.26255 -3.90635 -1.52567 0.0993354 -0.884462 -0.360119 -3.53492 
167 -0.8808 6.44091 39.6798 -2.95522 -3.87722 -1.41505 0.129373 -1.33036 -0.49605 -3.53425 
168 1.36886 5.2474 39.6902 -2.64161 -3.27552 -1.21688 -0.0479231 -0.883757 -0.359075 -3.53331 
169 -0.955727 6.43339 42.259 -2.78445 -3.62631 -1.1803 0.12788 -1.31346 -0.508215 -3.53461 
170 3.61543 4.04107 39.6913 -3.04554 -2.88855 -1.20855 -0.305605 -0.522016 0.53616 -3.5333 
171 1.64104 3.1026 40.9876 -2.83725 -3.08662 -1.24959 -0.18535 -0.4479 0.0498782 -3.53 
172 1.60614 3.12286 43.5687 -2.6159 -2.8643 -0.994317 -0.177075 -0.44636 0.0393854 -3.53027 
173 1.30846 5.26508 42.2698 -2.45553 -3.05843 -0.981294 -0.0467388 -0.869979 -0.36375 -3.53355 
174 3.57001 4.08445 42.2709 -2.82896 -2.70056 -0.974743 -0.297391 -0.523194 0.52658 -3.53354 
175 -0.66167 4.28367 43.5624 -3.05843 -3.65995 -1.28018 0.101049 -0.871214 -0.378032 -3.53523 
176 -0.710989 4.2781 46.1447 -2.82683 -3.39336 -1.01801 0.104121 -0.857279 -0.408948 -3.53549 
177 -1.03015 6.42569 44.8395 -2.56312 -3.34337 -0.964251 0.127787 -1.29351 -0.525347 -3.53495 
178 1.24856 5.28276 44.851 -2.22144 -2.80253 -0.748902 -0.0489656 -0.859986 -0.381923 -3.53386 
179 -1.10443 6.41816 47.4204 -2.29849 -3.01768 -0.779325 0.130003 -1.27514 -0.537462 -3.53528 
180 3.52498 4.12774 44.852 -2.56336 -2.47449 -0.749982 -0.290629 -0.531565 0.505756 -3.53383 
181 1.57129 3.14294 46.1516 -2.36657 -2.61629 -0.71671 -0.169942 -0.455906 0.0127559 -3.53054 
182 1.53636 3.16327 48.7364 -2.09019 -2.36099 -0.345985 -0.182726 -0.478774 -0.0257191 -3.53015 
183 1.1887 5.30045 47.4331 -1.94588 -2.50562 -0.518016 -0.0628584 -0.866558 -0.426432 -3.53411 
184 3.48005 4.171 47.4338 -2.24255 -2.22062 -0.541896 -0.285312 -0.557907 0.462422 -3.53403 
185 -0.760608 4.27328 48.7285 -2.6041 -3.07517 -0.672108 0.0974611 -0.849715 -0.413027 -3.53515 
186 -0.811621 4.26877 51.3169 -1.98848 -2.35117 0.310475 0.0838839 -0.841704 -0.653448 -3.53805 
187 -1.17889 6.41384 50.0002 -2.05973 -2.54266 -0.336634 0.0873642 -1.28006 -0.61663 -3.53572 
188 1.12775 5.31799 50.0156 -1.56907 -2.0788 -0.0206218 -0.110967 -0.945826 -0.595046 -3.53485 
189 -1.25707 6.40546 52.5877 -1.61235 -2.48689 0.643294 0.175758 -1.31617 -0.61315 -3.53282 
190 3.43505 4.21346 50.0156 -1.75823 -1.85271 -0.037745 -0.309216 -0.668225 0.314389 -3.53491 
191 1.50027 3.18358 51.3264 -1.43157 -1.70132 0.658639 -0.172625 -0.54836 -0.133367 -3.53273 
192 1.46587 3.20964 53.9052 0.0267049 0.953996 -0.795858 0.566309 -0.560981 0.138976 -3.37565 
193 1.06597 5.33731 52.6041 -1.24921 -1.89854 0.441478 -0.236969 -0.801328 -0.41083 -3.52779 
194 3.38747 4.26008 52.6041 -1.41016 -1.71355 0.389828 -0.390658 -0.639449 0.587315 -3.52746 
195 -0.866323 4.2769 53.8949 -0.050872 -0.206134 -1.18049 0.0793769 -1.26166 1.02744 -3.38132 
196 1.3298 4.1174 -56.3442 5.06942 2.90559 1.60242 -1.25473 -0.273892 0.110264 -2.79034 
197 -1.33605 6.40133 55.1665 4.18005 2.79745 1.28995 0.319922 -1.5232 0.197878 -3.26107 
198 1.00488 5.36129 55.1754 5.64208 6.63186 2.70774 0.369861 -0.636459 -0.0326194 -3.15047 
199 1.98371 6.26223 -55.1334 6.93988 9.11553 2.92916 0.134188 -0.847907 -0.525656 -3.02309 
200 3.34328 4.30996 55.1754 5.53064 7.35767 2.86911 0.118704 -0.278627 0.562634 -3.15115 
201 2.87095 2.09325 -56.362 4.04253 6.0065 1.881 -3.16453 0.252643 0.341789 -2.79939 
202 2.84551 2.1252 -53.8874 0.165013 0.763299 -3.02646 -0.982111 -0.732816 -0.162366 -3.51266 
203 3.53831 4.21674 -55.1525 6.03166 6.27391 1.75937 0.302437 -1.21951 -0.0444717 -3.1433 
204 5.07312 2.13635 -55.1525 6.04997 7.03887 2.00316 0.446065 -0.52812 0.0805364 -3.14511 
205 1.29262 4.16451 -53.8815 0.86127 -0.34824 -3.67504 -0.408879 -0.573881 0.839002 -3.51412 
206 1.24176 4.17585 -51.3147 -1.28677 -1.91096 -0.373601 -0.214933 -0.880571 0.220131 -3.53903 
207 1.90264 6.26187 -52.5941 -0.917834 -1.45681 -0.573028 -0.184181 -1.16804 0.819995 -3.52792 
208 3.4607 4.22944 -52.6036 -0.74887 -0.92583 0.0954557 -0.677537 -0.496072 0.191364 -3.53019 
209 1.82403 6.27282 -50.0101 -1.64247 -2.32524 -0.262043 -0.20044 -1.28161 0.433089 -3.53673 
210 5.01221 2.17771 -52.6036 -1.34184 -0.348561 0.0546313 -0.502576 0.0191959 0.991504 -3.52952 
211 2.80522 2.14769 -51.32 -1.10366 -0.946838 -0.11258 -0.278074 -0.333007 0.261772 -3.53414 
212 2.77226 2.17461 -48.7405 -1.96831 -1.83649 -0.545227 -0.291604 -0.223569 0.338112 -3.53087 
213 3.40036 4.25787 -50.02 -1.43124 -1.65373 -0.138729 -0.408352 -0.708767 0.286392 -3.53497 
214 4.971 2.23184 -50.02 -1.844 -1.27386 -0.113512 -0.29635 0.0209366 0.836012 -3.535 
215 1.18965 4.18043 -48.7355 -2.17773 -2.75537 -0.785397 -0.180379 -0.850096 0.284272 -3.5364 
216 1.13972 4.18651 -46.154 -2.63677 -3.19108 -0.973534 -0.165206 -0.833656 0.402202 -3.53604 
217 1.74858 6.27865 -47.4305 -2.10014 -2.8327 -0.672967 -0.213697 -1.24116 0.546449 -3.53588 
218 3.345 4.2875 -47.4411 -1.89782 -2.20775 -0.561156 -0.301209 -0.639265 0.336016 -3.53414 
219 1.67464 6.29044 -44.8494 -2.46948 -3.19089 -0.861511 -0.201053 -1.24471 0.604705 -3.53533 
220 4.9348 2.28446 -47.4403 -2.32151 -1.78815 -0.540473 -0.212368 0.105859 0.865022 -3.53419 
221 2.74197 2.20191 -46.1593 -2.36415 -2.26777 -0.738456 -0.232023 -0.161405 0.392718 -3.53074 
222 2.71359 2.23054 -43.5775 -2.6764 -2.59067 -0.949955 -0.216215 -0.150028 0.41283 -3.53037 
223 3.29148 4.31968 -44.8604 -2.23358 -2.57299 -0.716479 -0.260874 -0.625224 0.371284 -3.53392 
224 4.90189 2.33752 -44.8595 -2.65667 -2.14334 -0.721754 -0.178363 0.14329 0.89619 -3.53392 
225 1.09054 4.19505 -43.572 -2.97533 -3.5114 -1.20157 -0.153017 -0.841559 0.427382 -3.53553 
226 1.04128 4.20428 -40.9908 -3.23492 -3.78665 -1.44286 -0.151065 -0.854574 0.433698 -3.53509 
227 1.6009 6.30392 -42.2683 -2.75167 -3.49737 -1.08872 -0.200681 -1.26246 0.62007 -3.53483 
228 3.23889 4.35332 -42.2794 -2.50695 -2.86952 -0.916547 -0.244066 -0.627592 0.38878 -3.5336 
229 1.5267 6.31808 -39.6884 -2.96222 -3.76462 -1.33268 -0.20779 -1.28153 0.623487 -3.53438 
230 4.8705 2.39145 -42.2785 -2.93989 -2.42579 -0.92748 -0.167845 0.154933 0.921107 -3.5336 
231 2.68575 2.2599 -40.9963 -2.93228 -2.85211 -1.18039 -0.21379 -0.148063 0.426553 -3.53006 
232 2.658 2.28984 -38.4167 -3.14573 -3.06704 -1.42286 -0.218821 -0.147273 0.437854 -3.52981 
233 3.18652 4.38801 -39.6994 -2.72414 -3.1096 -1.14054 -0.238837 -0.632498 0.399005 -3.53333 
234 4.8397 2.44634 -39.6985 -3.17669 -2.64378 -1.1514 -0.168623 0.159643 0.942582 -3.53333 
235 0.99163 4.21378 -38.4113 -3.43426 -4.03111 -1.69406 -0.156327 -0.86689 0.434578 -3.53468 
236 0.941554 4.22348 -35.8343 -3.57508 -4.24156 -1.9499 -0.165951 -0.876749 0.42906 -3.53431 
237 1.45187 6.33274 -37.1107 -3.1043 -3.98826 -1.58499 -0.218655 -1.29729 0.618199 -3.53398 
238 3.13414 4.42364 -37.1215 -2.88554 -3.29329 -1.37467 -0.242346 -0.638812 0.401089 -3.53314 
239 1.37648 6.34791 -34.5362 -3.17893 -4.15725 -1.83201 -0.229029 -1.3093 0.599222 -3.53367 
240 4.80919 2.5022 -37.1205 -3.36414 -2.80025 -1.38421 -0.178969 0.159291 0.956283 -3.53314 
241 2.63025 2.32033 -35.8394 -3.31576 -3.2359 -1.66961 -0.230746 -0.149091 0.443504 -3.52963 
242 2.60247 2.35129 -33.2649 -3.43784 -3.35661 -1.91028 -0.249351 -0.156879 0.439651 -3.52955 
243 3.08167 4.46008 -34.5463 -2.98907 -3.41933 -1.60528 -0.253914 -0.649824 0.389797 -3.53306 
244 4.7789 2.5589 -34.5453 -3.497 -2.89728 -1.61389 -0.199025 0.148905 0.957194 -3.53306 
245 0.891121 4.2334 -33.2603 -3.65691 -4.40907 -2.19898 -0.176578 -0.884421 0.413056 -3.53401 
246 0.840405 4.24344 -30.6896 -3.68728 -4.53093 -2.42772 -0.185208 -0.89076 0.385496 -3.5338 
247 1.30063 6.36344 -31.9652 -3.1962 -4.26965 -2.05752 -0.235873 -1.31867 0.564208 -3.53349 
248 3.029 4.49707 -31.9744 -3.03954 -3.49498 -1.81972 -0.27186 -0.666529 0.363963 -3.53307 
249 1.2244 6.37901 -29.3977 -3.17405 -4.3352 -2.25047 -0.238166 -1.326 0.516697 -3.53342 
250 4.74867 2.61617 -31.9733 -3.57777 -2.94429 -1.8282 -0.227235 0.126056 0.94521 -3.53306 
251 2.57459 2.38255 -30.6937 -3.51347 -3.43343 -2.1336 -0.27286 -0.171296 0.42608 -3.52954 
252 2.54647 2.41387 -28.1258 -3.55119 -3.47691 -2.33113 -0.298349 -0.189991 0.406123 -3.52957 
253 2.97597 4.53418 -29.4059 -3.04946 -3.5343 -2.00967 -0.293199 -0.686544 0.328069 -3.53312 
254 4.7182 2.67368 -29.4046 -3.61692 -2.95666 -2.01853 -0.260227 0.0935213 0.924791 -3.5331 
255 0.789447 4.25341 -28.1224 -3.68092 -4.61304 -2.62647 -0.190068 -0.896235 0.349533 -3.53368 
256 0.738258 4.26307 -25.5582 -3.65303 -4.66514 -2.79168 -0.190623 -0.900907 0.309788 -3.53362 
257 1.14779 6.39422 -26.8335 -3.13002 -4.36766 -2.40755 -0.236093 -1.33139 0.462796 -3.53342 
258 2.92241 4.57103 -26.8405 -3.03304 -3.55106 -2.1718 -0.314698 -0.706872 0.288095 -3.53318 
259 1.07083 6.40875 -24.2719 -3.07734 -4.37943 -2.53103 -0.230168 -1.33508 0.407926 -3.53347 
260 4.6872 2.73114 -26.8391 -3.62688 -2.94906 -2.18087 -0.294377 0.0562092 0.900928 -3.53316 
261 2.51796 2.44505 -25.561 -3.56207 -3.49865 -2.49894 -0.323081 -0.210001 0.383738 -3.52962 
262 2.48898 2.47595 -22.9988 -3.556 -3.50806 -2.63694 -0.345234 -0.229189 0.361763 -3.52967 
263 2.86822 4.60734 -24.2778 -3.00212 -3.55549 -2.30621 -0.333838 -0.725448 0.248553 -3.53323 
264 4.65545 2.78836 -24.2763 -3.61839 -2.93244 -2.31495 -0.327032 0.0184111 0.87718 -3.53321 
265 0.686843 4.27225 -22.9967 -3.61538 -4.6967 -2.92455 -0.187125 -0.904798 0.270081 -3.5336 
266 0.635209 4.28083 -20.4373 -3.57573 -4.71524 -3.02884 -0.180191 -0.90806 0.232735 -3.5336 
267 0.993539 6.42238 -21.7127 -3.02452 -4.37969 -2.62585 -0.220966 -1.33762 0.355597 -3.53353 
268 2.81335 4.64295 -21.7174 -2.96513 -3.5543 -2.41506 -0.349187 -0.741345 0.211929 -3.53327 
269 0.915927 6.43499 -19.1551 -2.97626 -4.37456 -2.69749 -0.209102 -1.33961 0.307516 -3.53359 
270 4.62281 2.84522 -21.7158 -3.59949 -2.91387 -2.4229 -0.35673 -0.0171614 0.855528 -3.53325 
271 2.45946 2.50648 -20.4388 -3.54047 -3.51158 -2.74757 -0.363937 -0.246471 0.341696 -3.52971 
272 2.42942 2.5366 -17.8807 -3.52052 -3.51313 -2.83442 -0.379014 -0.26155 0.324062 -3.52975 
273 2.75779 4.67776 -19.1589 -2.92738 -3.55149 -2.50146 -0.36027 -0.754463 0.179166 -3.5333 
274 4.58922 2.90164 -19.1573 -3.57563 -2.89738 -2.50807 -0.382923 -0.0492687 0.836792 -3.53328 
275 0.58337 4.28874 -17.8797 -3.53855 -4.72602 -3.1092 -0.170544 -0.910954 0.198787 -3.5336 
276 0.531338 4.29595 -15.3234 -3.506 -4.73247 -3.17014 -0.158882 -0.913783 0.168426 -3.53361 
277 0.838017 6.44652 -16.599 -2.93466 -4.36773 -2.75094 -0.195216 -1.34163 0.264143 -3.53365 
278 2.70156 4.71174 -16.602 -2.89188 -3.54923 -2.56886 -0.367244 -0.765169 0.150282 -3.53332 
279 0.759821 6.45694 -14.0439 -2.90002 -4.36121 -2.79033 -0.179923 -1.34407 0.225225 -3.53369 
280 4.55468 2.95758 -16.6003 -3.55022 -2.88488 -2.57412 -0.405628 -0.07769 0.821072 -3.53331 
281 2.39885 2.56629 -15.324 -3.49931 -3.51486 -2.90139 -0.390706 -0.274603 0.308824 -3.52977 
282 2.36776 2.59554 -12.7685 -3.47855 -3.51771 -2.95213 -0.399467 -0.286016 0.295674 -3.52979 
283 2.64468 4.74489 -14.0462 -2.85995 -3.54849 -2.62057 -0.370611 -0.774007 0.124831 -3.53333 
284 4.51919 3.01305 -14.0446 -3.52521 -2.87697 -2.62452 -0.425162 -0.102777 0.808076 -3.53332 
285 0.479121 4.30245 -12.7682 -3.47872 -4.73665 -3.2156 -0.145821 -0.916803 0.141382 -3.53362 
286 0.426722 4.30824 -10.2137 -3.45634 -4.73969 -3.24885 -0.131879 -0.92015 0.117186 -3.53362 
287 0.681344 6.46626 -11.4896 -2.87156 -4.35593 -2.81892 -0.163762 -1.34711 0.190179 -3.53373 
288 2.58719 4.77721 -11.4914 -2.83186 -3.54952 -2.65956 -0.371012 -0.781498 0.102196 -3.53334 
289 0.60259 6.47449 -8.93595 -2.84789 -4.35215 -2.83916 -0.147155 -1.35067 0.158311 -3.53375 
290 4.4828 3.06802 -11.4897 -3.5015 -2.87347 -2.66229 -0.441982 -0.125116 0.79733 -3.53333 
291 2.33619 2.62437 -10.2138 -3.45903 -3.52192 -2.9898 -0.40583 -0.296202 0.284209 -3.5298 
292 2.30412 2.65277 -7.65972 -3.44086 -3.52734 -3.01699 -0.410327 -0.305483 0.274036 -3.52981 
293 2.52909 4.80871 -8.93719 -2.80717 -3.55218 -2.68831 -0.369089 -0.788019 0.0817517 -3.53334 
294 4.44551 3.12251 -8.93556 -3.47934 -2.87379 -2.68989 -0.456572 -0.145317 0.78831 -3.53334 
295 0.374143 4.31333 -7.65984 -3.43795 -4.74212 -3.27241 -0.117471 -0.923763 0.095302 -3.53362 
296 0.321387 4.31773 -5.10638 -3.42242 -4.74411 -3.28818 -0.102908 -0.927349 0.0751798 -3.53363 
297 0.523566 6.48166 -6.38268 -2.82746 -4.34976 -2.85284 -0.130372 -1.35436 0.128918 -3.53377 
298 2.47042 4.83942 -6.38351 -2.78513 -3.55616 -2.70876 -0.365393 -0.793741 0.0629484 -3.53334 
299 0.444294 6.48779 -3.82971 -2.809 -4.34852 -2.86114 -0.113512 -1.3576 0.101317 -3.53378 
300 4.40736 3.17651 -6.38189 -3.45856 -2.87727 -2.7092 -0.469358 -0.163884 0.780513 -3.53334 
301 2.27159 2.68075 -5.10609 -3.42383 -3.53369 -3.03564 -0.41342 -0.314038 0.26481 -3.52982 
302 2.2386 2.70832 -2.55275 -3.40757 -3.54074 -3.04712 -0.415426 -0.321903 0.256246 -3.52982 
303 2.41121 4.86933 -3.83018 -2.76494 -3.5612 -2.72231 -0.360294 -0.798634 0.045337 -3.53334 
304 4.36837 3.23001 -3.82856 -3.43887 -2.88332 -2.72157 -0.480633 -0.181184 0.773497 -3.53335 
305 0.268468 4.32147 -2.55319 -3.40879 -4.74566 -3.29736 -0.0883704 -0.930405 0.0562643 -3.53363 
306 0.364824 6.49289 -1.27694 -2.79198 -4.3482 -2.86473 -0.0965035 -1.3597 0.0748603 -3.5338 
307 2.35149 4.89846 -1.27706 -2.74607 -3.5672 -2.72979 -0.353925 -0.802538 0.0285591 -3.53335 
308 4.32858 3.28299 -1.27544 -3.42 -2.89161 -2.72785 -0.490495 -0.197451 0.766896 -3.53335 
309 2.43639 7.09067 -0.00075512 -2.2212 -3.36382 -2.40271 -0.317686 -1.20929 -0.18851 -3.53289 
310 0.43465 8.66783 -0.000957348 -2.25249 -4.02075 -2.49712 -0.100091 -1.7467 0.0827915 -3.53355 