ITEM: TIMESTEP
1061
ITEM: NUMBER OF ATOMS
37664
ITEM: BOX BOUNDS ff ff ff
-100 100
-100 100
-156.15 156.15
ITEM: ATOMS id x y z v_peratom_sxx v_peratom_syy v_peratom_szz v_peratom_sxy v_peratom_sxz v_peratom_syz c_atomPE 
1 -0.00365921 -0.00218437 0.00105853 -5.17912 -5.17186 -9.53879 0.000196136 -0.0114224 -0.0279713 -3.51527 
2 -0.00396078 -0.00207546 2.55431 -5.17838 -5.17105 -9.53777 -0.000210129 -0.0135516 -0.0267785 -3.51527 
3 -0.00428896 -0.00191236 5.10762 -5.17317 -5.16613 -9.52703 -0.000854429 -0.013865 -0.0254826 -3.51532 
4 -0.00463011 -0.00169914 7.66113 -5.1627 -5.1565 -9.5051 -0.0017296 -0.0118432 -0.0242377 -3.51541 
5 -0.00496005 -0.00144963 10.215 -5.14598 -5.14129 -9.46987 -0.00275312 -0.00735199 -0.0230634 -3.51557 
6 -0.00524704 -0.00118362 12.7694 -5.12191 -5.11935 -9.41869 -0.00378042 -0.000730423 -0.0218317 -3.5158 
7 -0.00545763 -0.000921263 15.3246 -5.08915 -5.0891 -9.34836 -0.00464975 0.007269 -0.0203383 -3.51612 
8 -0.00556356 -0.000678232 17.8809 -5.04584 -5.04838 -9.25498 -0.00523373 0.0156694 -0.0184104 -3.51655 
9 -0.00554737 -0.000463355 20.4386 -4.98929 -4.99417 -9.13387 -0.00547239 0.0235016 -0.0159942 -3.5171 
10 -0.00540495 -0.000278982 22.998 -4.91561 -4.92233 -8.97955 -0.00537875 0.0299941 -0.0131881 -3.5178 
11 -0.00514501 -0.000123277 25.5597 -4.81954 -4.82748 -8.78639 -0.00502289 0.0346799 -0.0102225 -3.51866 
12 -0.00478597 6.86259e-06 28.124 -4.69471 -4.70322 -8.55026 -0.004505 0.0374182 -0.00740216 -3.51969 
13 -0.00435141 0.000113485 30.6914 -4.53514 -4.54368 -8.27159 -0.00392678 0.0383503 -0.00502562 -3.52089 
14 -0.00386514 0.000196651 33.262 -4.3391 -4.34727 -7.95914 -0.00336882 0.0378201 -0.00330542 -3.5222 
15 -0.00334708 0.000254865 35.8358 -4.11434 -4.12187 -7.63043 -0.00287916 0.03628 -0.00231762 -3.52347 
16 -0.00281082 0.000285991 38.4125 -3.87685 -3.8836 -7.30382 -0.0024733 0.0341949 -0.00200841 -3.52458 
17 -0.00226245 0.000287585 40.9917 -3.63818 -3.64412 -6.98579 -0.00214038 0.0319711 -0.00225418 -3.52548 
18 -0.00169818 0.000256742 43.5731 -3.39933 -3.40442 -6.66358 -0.00184704 0.0299983 -0.00291437 -3.5262 
19 -0.00110022 0.0001897 46.1569 -3.13509 -3.1392 -6.30043 -0.00152455 0.0286534 -0.00383877 -3.52695 
20 -0.000439394 7.85579e-05 48.7435 -2.75185 -2.75405 -5.86099 -0.000846546 0.0277593 -0.00497703 -3.52782 
21 5.95933e-07 -4.11185e-08 51.3317 -1.92309 -1.92293 -4.91978 7.86419e-05 -0.00140342 0.000245395 -3.53203 
22 4.01304e-07 -1.42881e-06 53.9138 -0.851893 -0.851902 -8.91777 9.41259e-07 -2.79951e-05 -7.13179e-05 -3.48169 
23 8.71386e-07 -1.98378e-06 56.3885 1.68559 1.6856 1.87689 -1.50262e-05 2.35015e-05 -3.62392e-07 -2.55581 
24 -1.23087e-07 -1.12453e-06 -53.8876 -2.60698 -2.607 -6.54962 -1.83819e-05 1.08411e-05 -3.22804e-05 -3.40183 
25 1.02659e-07 -1.55837e-06 -51.3239 -2.0791 -2.07927 -5.57922 -0.000267888 0.000688941 0.00143665 -3.52873 
26 -0.000176256 -0.000409502 -48.7462 -2.69393 -2.69143 -6.14688 0.00353233 -0.011176 -0.0255737 -3.5264 
27 -0.000410316 -0.000986915 -46.1646 -3.02097 -3.0165 -6.3468 0.0062543 -0.0093816 -0.023943 -3.52678 
28 -0.000582023 -0.00142796 -43.5822 -3.30258 -3.29635 -6.60717 0.00688155 -0.00614902 -0.0227617 -3.52635 
29 -0.000695572 -0.0017661 -41.0007 -3.55822 -3.55001 -6.89562 0.00683057 -0.00260382 -0.0219951 -3.52575 
30 -0.000770531 -0.00202004 -38.4209 -3.80876 -3.79857 -7.20457 0.00631858 0.000971004 -0.0214783 -3.52491 
31 -0.000828557 -0.00220102 -35.8434 -4.05544 -4.04348 -7.52997 0.00545533 0.00427397 -0.0211202 -3.52385 
32 -0.000891623 -0.00231864 -33.2685 -4.28885 -4.27557 -7.86065 0.00436587 0.00697014 -0.0209314 -3.52261 
33 -0.000979259 -0.00238381 -30.6968 -4.49588 -4.4819 -8.17896 0.00320937 0.00879302 -0.0209776 -3.52132 
34 -0.00110494 -0.00240891 -28.1283 -4.66797 -4.65397 -8.46773 0.00215146 0.00964119 -0.0213253 -3.5201 
35 -0.00127347 -0.00240636 -25.5629 -4.80415 -4.79072 -8.71637 0.0013198 0.00961501 -0.0219953 -3.51901 
36 -0.00148056 -0.00238715 -23.0002 -4.90844 -4.89601 -8.92191 0.000771336 0.00896287 -0.0229444 -3.5181 
37 -0.00171503 -0.00236001 -20.4398 -4.98674 -4.97552 -9.08675 0.000487265 0.00795922 -0.024085 -3.51736 
38 -0.00196269 -0.00233168 -17.8814 -5.04484 -5.03485 -9.21596 0.00039622 0.00677808 -0.025317 -3.51677 
39 -0.00221077 -0.00230737 -15.3244 -5.08763 -5.07874 -9.31533 0.000411135 0.00542404 -0.026546 -3.51632 
40 -0.00245128 -0.0022907 -12.7687 -5.11894 -5.11092 -9.3904 0.000461077 0.00375232 -0.0276759 -3.51597 
41 -0.00268265 -0.00228251 -10.2138 -5.14164 -5.13423 -9.44598 0.000504773 0.0015664 -0.0285929 -3.51571 
42 -0.00290947 -0.00227917 -7.65951 -5.15783 -5.15076 -9.48603 0.000523759 -0.00124993 -0.0291643 -3.51553 
43 -0.00314077 -0.00227144 -5.10573 -5.16897 -5.16199 -9.5136 0.000503062 -0.00461742 -0.0292702 -3.5154 
44 -0.00338749 -0.00224521 -2.55225 -5.17595 -5.16886 -9.5308 0.000411901 -0.00820092 -0.028855 -3.51532 
45 0.0924537 2.15789 1.27692 -4.05609 -5.14041 -3.83752 -0.051176 -0.452002 0.00356551 -3.52907 
46 0.0657834 2.15902 3.83011 -4.05013 -5.13957 -3.8317 -0.0397272 -0.452228 -0.0055519 -3.52908 
47 0.0391113 2.15987 6.38344 -4.04495 -5.13639 -3.81756 -0.0282601 -0.450897 -0.0150734 -3.5291 
48 0.012488 2.16041 8.93704 -4.04123 -5.13066 -3.79385 -0.0165643 -0.448049 -0.0252671 -3.52913 
49 -0.0140325 2.16063 11.4911 -4.03995 -5.12198 -3.75893 -0.00448217 -0.44405 -0.0363289 -3.52917 
50 -0.0404017 2.1605 14.0458 -4.042 -5.10964 -3.7107 0.00797234 -0.43948 -0.0484475 -3.52922 
51 -0.0665841 2.16 16.6015 -4.04786 -5.09241 -3.64655 0.020552 -0.434951 -0.0618732 -3.52928 
52 -0.0925614 2.15915 19.1584 -4.05724 -5.06837 -3.56313 0.0327853 -0.430947 -0.076937 -3.52935 
53 -0.118333 2.15792 21.7168 -4.06865 -5.03461 -3.45637 0.044034 -0.427743 -0.0939763 -3.52943 
54 -0.143913 2.15636 24.2772 -4.07892 -4.98687 -3.32166 0.0535748 -0.42539 -0.113121 -3.52953 
55 -0.169327 2.15449 26.8399 -4.08225 -4.91917 -3.1546 0.0607102 -0.423746 -0.13389 -3.52967 
56 -0.194603 2.15238 29.4055 -4.0692 -4.82379 -2.95274 0.0649445 -0.422528 -0.154625 -3.52986 
57 -0.219764 2.15011 31.9742 -4.02647 -4.6926 -2.71818 0.0662697 -0.421342 -0.172187 -3.53012 
58 -0.244814 2.1478 34.5463 -3.9402 -4.5212 -2.45989 0.0654774 -0.419696 -0.18308 -3.53047 
59 -0.269729 2.14548 37.1216 -3.80484 -4.31499 -2.19212 0.0641192 -0.41701 -0.187021 -3.53087 
60 -0.29447 2.14307 39.6996 -3.62866 -4.08864 -1.92633 0.0637588 -0.412815 -0.189048 -3.53128 
61 -0.319012 2.1405 42.2798 -3.42358 -3.8529 -1.66284 0.0651091 -0.407204 -0.195258 -3.53164 
62 -0.34339 2.13767 44.8621 -3.19607 -3.60461 -1.39029 0.0674138 -0.400743 -0.212224 -3.53193 
63 -0.367766 2.13483 47.4464 -2.91617 -3.29365 -1.10609 0.0673391 -0.395859 -0.231656 -3.53223 
64 -0.392512 2.13371 50.032 -2.4344 -2.80056 -0.495203 0.0605354 -0.414717 -0.201061 -3.53323 
65 -0.418483 2.1304 52.6263 -1.76576 -2.00553 -0.561412 0.0455108 -0.308933 -0.729988 -3.52457 
66 -0.44812 2.14653 55.1778 6.97658 7.73843 2.4309 0.0330135 -0.597323 1.77022 -3.02528 
67 0.649859 2.05055 -55.162 1.38944 0.842378 -0.678391 -0.188254 -0.099198 1.20761 -3.26036 
68 0.633027 2.08274 -52.6122 -1.11195 -2.21866 -0.45772 -0.37449 -0.489286 -0.161469 -3.53566 
69 0.607028 2.08678 -50.0319 -2.00257 -2.5546 -0.871101 -0.170329 -0.429497 0.0815296 -3.53399 
70 0.581321 2.08836 -47.4532 -2.63735 -3.07097 -1.20598 -0.127072 -0.403259 0.155518 -3.5329 
71 0.55652 2.09194 -44.8711 -3.05861 -3.44027 -1.36602 -0.106799 -0.397641 0.198926 -3.53225 
72 0.531904 2.09627 -42.2892 -3.35746 -3.72578 -1.59498 -0.098301 -0.401414 0.210474 -3.53183 
73 0.507179 2.10081 -39.7085 -3.60104 -3.98176 -1.84566 -0.0971404 -0.406825 0.216367 -3.53141 
74 0.482249 2.10544 -37.1298 -3.80324 -4.21979 -2.10936 -0.101565 -0.411791 0.219835 -3.53098 
75 0.457113 2.11015 -34.5536 -3.9609 -4.43481 -2.37892 -0.109934 -0.415935 0.218548 -3.53055 
76 0.431799 2.11495 -31.9806 -4.06974 -4.61701 -2.64226 -0.119923 -0.41956 0.209801 -3.53018 
77 0.406338 2.11977 -29.4107 -4.13312 -4.76118 -2.88567 -0.129003 -0.42296 0.193585 -3.52988 
78 0.380743 2.12453 -26.8441 -4.16142 -4.86944 -3.0991 -0.135318 -0.426174 0.17248 -3.52965 
79 0.35502 2.12912 -24.2805 -4.16656 -4.94814 -3.27829 -0.138051 -0.429115 0.149543 -3.52948 
80 0.329176 2.13347 -21.7193 -4.15846 -5.00449 -3.4238 -0.137208 -0.43172 0.127026 -3.52936 
81 0.303222 2.13752 -19.1602 -4.14408 -5.04473 -3.53899 -0.133237 -0.434011 0.106171 -3.52927 
82 0.27717 2.14124 -16.6027 -4.12785 -5.07363 -3.62831 -0.126737 -0.436098 0.0874617 -3.52921 
83 0.25103 2.14463 -14.0466 -4.11229 -5.09463 -3.69631 -0.118297 -0.43815 0.0709319 -3.52916 
84 0.224809 2.14767 -11.4914 -4.0986 -5.11004 -3.74707 -0.108432 -0.440344 0.0564012 -3.52912 
85 0.198505 2.15036 -8.93699 -4.08709 -5.12141 -3.78404 -0.0975888 -0.442789 0.0436106 -3.5291 
86 0.172116 2.15271 -6.38309 -4.07756 -5.12971 -3.80996 -0.0861528 -0.445458 0.0322728 -3.52908 
87 0.145641 2.15474 -3.82956 -4.06954 -5.13549 -3.82681 -0.0744552 -0.448149 0.0220695 -3.52907 
88 0.119082 2.15646 -1.27627 -4.06252 -5.13904 -3.83583 -0.0627499 -0.45049 0.012636 -3.52906 
89 0.215419 4.32456 -0.00017053 -3.39647 -4.74672 -3.30056 -0.0738773 -0.932249 0.0379701 -3.53364 
90 0.285235 6.49698 1.27574 -2.77686 -4.34874 -2.86386 -0.0791192 -1.36009 0.0489155 -3.53381 
91 2.20518 2.73546 0.000427955 -3.39174 -3.54847 -3.05218 -0.416461 -0.328985 0.248096 -3.52983 
92 2.17136 2.76217 2.55358 -3.37644 -3.55703 -3.05092 -0.41634 -0.335247 0.240206 -3.52983 
93 2.29131 4.92679 1.27597 -2.72849 -3.5743 -2.73151 -0.346138 -0.805222 0.0123195 -3.53335 
94 4.28803 3.33543 1.27761 -3.4019 -2.90212 -2.72842 -0.498805 -0.212822 0.760424 -3.53335 
95 0.1623 4.327 2.5528 -3.38592 -4.74729 -3.29787 -0.0592603 -0.932575 0.0198527 -3.53365 
96 0.109178 4.32879 5.10583 -3.3779 -4.74747 -3.28892 -0.0443061 -0.931117 0.00140655 -3.53366 
97 0.205629 6.50005 3.82843 -2.76505 -4.35023 -2.85844 -0.0611897 -1.35882 0.022947 -3.53382 
98 2.23076 4.95429 3.82901 -2.71288 -3.5827 -2.72734 -0.336649 -0.806751 -0.00368533 -3.53335 
99 0.126113 6.5021 6.38125 -2.75843 -4.35297 -2.84816 -0.0425507 -1.35615 -0.00360454 -3.53383 
100 4.24676 3.3873 3.83069 -3.38493 -2.91501 -2.72319 -0.50524 -0.227503 0.753891 -3.53336 
101 2.13718 2.78843 5.10681 -3.36185 -3.56673 -3.04301 -0.414725 -0.340656 0.232383 -3.52983 
102 2.1027 2.8142 7.66027 -3.34864 -3.57791 -3.02759 -0.41111 -0.345347 0.224445 -3.52983 
103 2.1699 4.98095 6.38221 -2.70025 -3.59271 -2.71675 -0.325061 -0.807252 -0.0198025 -3.53336 
104 4.20481 3.43855 6.38393 -3.36963 -2.93064 -2.71173 -0.509348 -0.241714 0.747113 -3.53336 
105 0.0561362 4.32992 7.65907 -3.37393 -4.74741 -3.27303 -0.0287701 -0.928098 -0.0177777 -3.53368 
106 0.00325269 4.33037 10.2127 -3.37571 -4.74723 -3.24924 -0.0125349 -0.924098 -0.0380853 -3.53369 
107 0.0467918 6.50311 8.93433 -2.759 -4.35731 -2.83254 -0.0232205 -1.35281 -0.0312785 -3.53383 
108 2.10882 5.00672 8.93569 -2.69204 -3.60452 -2.69893 -0.311047 -0.807177 -0.0364895 -3.53336 
109 -0.0322561 6.50304 11.4878 -2.76838 -4.36351 -2.81084 -0.00340923 -1.34964 -0.0606622 -3.53382 
110 4.16225 3.48917 8.93747 -3.35684 -2.94932 -2.69319 -0.510644 -0.255833 0.739908 -3.53336 
111 2.06795 2.83945 10.2141 -3.3377 -3.59074 -3.00336 -0.404992 -0.349663 0.216146 -3.52983 
112 2.03299 2.86416 12.7685 -3.32997 -3.60508 -2.96865 -0.39599 -0.354147 0.207139 -3.52982 
113 2.04756 5.03158 11.4896 -2.68963 -3.61812 -2.67273 -0.294444 -0.807197 -0.0543507 -3.53336 
114 4.11911 3.53909 11.4915 -3.34747 -2.97128 -2.66637 -0.508702 -0.270408 0.73201 -3.53336 
115 -0.0494075 4.33012 12.7668 -3.38474 -4.74682 -3.21626 0.00430376 -0.919851 -0.059939 -3.5337 
116 -0.101802 4.32915 15.3217 -3.40196 -4.74573 -3.17231 0.0214276 -0.916012 -0.0838488 -3.53371 
117 -0.110982 6.50189 14.0419 -2.78748 -4.37161 -2.78192 0.0165201 -1.34736 -0.0924307 -3.5338 
118 1.98618 5.05549 14.0442 -2.69413 -3.6332 -2.63671 -0.27526 -0.808091 -0.0741386 -3.53336 
119 -0.189368 6.49964 16.5968 -2.81655 -4.3813 -2.74403 0.0361255 -1.34639 -0.127352 -3.53376 
120 4.07542 3.5883 14.0461 -3.34226 -2.99654 -2.62968 -0.503189 -0.286145 0.723023 -3.53336 
121 1.99785 2.88831 15.3237 -3.32618 -3.62045 -2.92136 -0.383894 -0.359485 0.196942 -3.52981 
122 1.96254 2.91186 17.8799 -3.32653 -3.6359 -2.85889 -0.368642 -0.366409 0.18496 -3.52979 
123 1.9247 5.07842 16.5996 -2.70615 -3.64916 -2.58896 -0.253618 -0.810622 -0.0967166 -3.53335 
124 4.0312 3.63677 16.6015 -3.34168 -3.02486 -2.58112 -0.493855 -0.303865 0.712381 -3.53335 
125 -0.153913 4.32744 17.8776 -3.4276 -4.74301 -3.11494 0.0383476 -0.912998 -0.110412 -3.5337 
126 -0.205742 4.32501 20.4348 -3.46102 -4.73691 -3.04086 0.0544752 -0.910927 -0.140232 -3.5337 
127 -0.267415 6.49626 19.1527 -2.85525 -4.39173 -2.69464 0.0549594 -1.34676 -0.166236 -3.53371 
128 1.86312 5.10036 19.1561 -2.72571 -3.665 -2.52704 -0.229689 -0.815444 -0.122979 -3.53334 
129 -0.345137 6.49178 21.7099 -2.90265 -4.40124 -2.63017 0.0726209 -1.34817 -0.209785 -3.53364 
130 3.98644 3.68445 19.158 -3.34569 -3.05567 -2.51825 -0.480508 -0.324429 0.699364 -3.53334 
131 1.92707 2.93481 20.4374 -3.33052 -3.64988 -2.77814 -0.350279 -0.375592 0.17054 -3.52976 
132 1.89143 2.95715 22.9967 -3.33648 -3.65996 -2.6755 -0.32895 -0.387521 0.153113 -3.52973 
133 1.80142 5.12127 21.7141 -2.75215 -3.6791 -2.44793 -0.203675 -0.823061 -0.153704 -3.53331 
134 3.94114 3.73132 21.716 -3.35357 -3.08783 -2.43818 -0.463026 -0.348628 0.68316 -3.53332 
135 -0.257305 4.32187 22.9936 -3.5005 -4.72458 -2.94587 0.0691758 -0.909649 -0.173716 -3.53369 
136 -0.308625 4.31806 25.5544 -3.54258 -4.70152 -2.82504 0.0817917 -0.908838 -0.210676 -3.5337 
137 -0.42255 6.48623 24.2687 -2.95687 -4.40684 -2.54591 0.0887682 -1.35002 -0.258287 -3.53357 
138 1.73959 5.14117 24.2738 -2.78377 -3.68891 -2.34809 -0.175865 -0.833767 -0.189282 -3.53328 
139 -0.499667 6.47969 26.8296 -3.01443 -4.40354 -2.43608 0.103072 -1.35157 -0.311064 -3.53351 
140 3.8953 3.77736 24.2756 -3.36359 -3.11928 -2.33767 -0.441466 -0.376989 0.663035 -3.53329 
141 1.85562 2.97889 25.558 -3.34109 -3.66228 -2.54713 -0.304992 -0.402281 0.132468 -3.52968 
142 1.81965 3.00008 28.1218 -3.33835 -3.65083 -2.38972 -0.279153 -0.419165 0.109266 -3.52962 
143 1.67764 5.16008 26.8357 -2.81717 -3.69042 -2.22382 -0.146831 -0.847496 -0.229231 -3.53323 
144 3.84895 3.82258 26.8375 -3.37233 -3.14632 -2.2133 -0.416292 -0.409376 0.638687 -3.53324 
145 -0.359733 4.31368 28.1178 -3.58088 -4.66087 -2.67344 0.0916567 -0.908112 -0.24971 -3.53373 
146 -0.410656 4.30887 30.684 -3.60454 -4.59309 -2.48772 0.0981807 -0.907084 -0.287497 -3.53381 
147 -0.576501 6.47232 29.393 -3.06878 -4.38335 -2.2945 0.1151 -1.35214 -0.365672 -3.53348 
148 1.61558 5.17813 29.4003 -2.84608 -3.67748 -2.07197 -0.117748 -0.863445 -0.271426 -3.53318 
149 -0.653066 6.4644 31.9595 -3.10842 -4.33439 -2.11637 0.124188 -1.35123 -0.417151 -3.5335 
150 3.80215 3.86703 29.4019 -3.37371 -3.16265 -2.062 -0.388736 -0.444313 0.610877 -3.53318 
151 1.78359 3.02083 30.6886 -3.31853 -3.61682 -2.20175 -0.252913 -0.436121 0.0857659 -3.52957 
152 1.74755 3.0413 33.2587 -3.26795 -3.54908 -1.98538 -0.228652 -0.449487 0.0662166 -3.52956 
153 1.55349 5.19554 31.9678 -2.85968 -3.64107 -1.89105 -0.0907193 -0.879382 -0.311233 -3.53312 
154 3.75509 3.91086 31.9693 -3.35749 -3.15825 -1.88193 -0.361099 -0.478139 0.582287 -3.53311 
155 -0.461406 4.30387 33.2536 -3.59737 -4.4868 -2.26905 0.101128 -0.905223 -0.318845 -3.53397 
156 -0.511956 4.29887 35.8266 -3.5413 -4.33307 -2.02613 0.101085 -0.901562 -0.339171 -3.53423 
157 -0.729354 6.45633 34.5294 -3.11545 -4.24113 -1.902 0.129527 -1.34828 -0.458399 -3.53363 
158 1.49151 5.21266 34.5387 -2.84152 -3.5691 -1.68279 -0.0686824 -0.89099 -0.34159 -3.53309 
159 -0.805307 6.44846 37.103 -3.06832 -4.08888 -1.66157 0.13083 -1.34193 -0.48369 -3.53389 
160 3.70806 3.95431 34.54 -3.3083 -3.11911 -1.67426 -0.336568 -0.50493 0.557924 -3.53308 
161 1.7117 3.06171 35.8321 -3.17239 -3.43755 -1.74788 -0.209034 -0.455293 0.055198 -3.52962 
162 1.6762 3.08217 38.4085 -3.02606 -3.28042 -1.50003 -0.195166 -0.453044 0.0523952 -3.52978 
163 1.42989 5.22988 37.1129 -2.7724 -3.44881 -1.45411 -0.0542982 -0.892905 -0.35648 -3.53314 
164 3.66143 3.99766 37.1141 -3.20778 -3.03089 -1.44567 -0.317941 -0.519184 0.542994 -3.53313 
165 -0.56223 4.29395 38.4028 -3.42723 -4.13423 -1.77419 0.0997378 -0.894844 -0.34995 -3.53458 
166 -0.61214 4.28895 40.9816 -3.26254 -3.90635 -1.52568 0.0993315 -0.884463 -0.360126 -3.53492 
167 -0.8808 6.44091 39.6798 -2.95521 -3.87721 -1.41505 0.129369 -1.33035 -0.496057 -3.53425 
168 1.36886 5.2474 39.6902 -2.64161 -3.27552 -1.2169 -0.0479308 -0.883762 -0.359086 -3.53331 
169 -0.955727 6.43339 42.259 -2.78444 -3.62631 -1.1803 0.127879 -1.31346 -0.50822 -3.53461 
170 3.61543 4.04107 39.6913 -3.04555 -2.88855 -1.20858 -0.305616 -0.522027 0.536151 -3.5333 
171 1.64104 3.1026 40.9876 -2.83726 -3.08662 -1.24961 -0.18536 -0.44791 0.0498677 -3.53 
172 1.60614 3.12286 43.5687 -2.6159 -2.8643 -0.994336 -0.177081 -0.446366 0.0393787 -3.53027 
173 1.30846 5.26508 42.2698 -2.45553 -3.05843 -0.98131 -0.0467431 -0.869981 -0.363757 -3.53355 
174 3.57001 4.08445 42.2709 -2.82896 -2.70056 -0.97476 -0.297399 -0.523201 0.526574 -3.53354 
175 -0.66167 4.28367 43.5624 -3.05842 -3.65995 -1.28019 0.101048 -0.871214 -0.378037 -3.53523 
176 -0.710989 4.2781 46.1447 -2.82683 -3.39336 -1.01801 0.104122 -0.857279 -0.40895 -3.53549 
177 -1.03015 6.42569 44.8395 -2.56312 -3.34337 -0.964251 0.127787 -1.29351 -0.52535 -3.53495 
178 1.24856 5.28276 44.851 -2.22144 -2.80253 -0.748915 -0.0489677 -0.859986 -0.381927 -3.53386 
179 -1.10443 6.41816 47.4204 -2.29849 -3.01768 -0.779324 0.130004 -1.27513 -0.537464 -3.53528 
180 3.52498 4.12774 44.852 -2.56336 -2.47449 -0.749998 -0.290634 -0.531569 0.505752 -3.53383 
181 1.5713 3.14294 46.1516 -2.36658 -2.6163 -0.716725 -0.169945 -0.455909 0.0127519 -3.53054 
182 1.53636 3.16327 48.7364 -2.0902 -2.361 -0.345996 -0.182727 -0.478776 -0.0257235 -3.53015 
183 1.1887 5.30045 47.4331 -1.94588 -2.50562 -0.518029 -0.0628592 -0.866557 -0.426434 -3.53411 
184 3.48005 4.171 47.4338 -2.24255 -2.22062 -0.541912 -0.285314 -0.557909 0.462419 -3.53403 
185 -0.760608 4.27328 48.7285 -2.60411 -3.07517 -0.67211 0.0974608 -0.849713 -0.413028 -3.53515 
186 -0.811621 4.26877 51.3169 -1.98847 -2.35117 0.310477 0.0838849 -0.841704 -0.653447 -3.53805 
187 -1.17889 6.41384 50.0002 -2.05973 -2.54266 -0.336636 0.0873622 -1.28006 -0.616633 -3.53572 
188 1.12775 5.31799 50.0156 -1.56907 -2.0788 -0.0206242 -0.110966 -0.945827 -0.595049 -3.53485 
189 -1.25707 6.40546 52.5877 -1.61236 -2.48689 0.64329 0.175757 -1.31617 -0.613152 -3.53282 
190 3.43505 4.21346 50.0156 -1.75824 -1.85272 -0.0377488 -0.309217 -0.668226 0.314385 -3.53491 
191 1.50027 3.18358 51.3264 -1.43157 -1.70133 0.658641 -0.172626 -0.54836 -0.133366 -3.53273 
192 1.46587 3.20964 53.9052 0.0267064 0.953998 -0.795852 0.56631 -0.560979 0.138978 -3.37565 
193 1.06597 5.33731 52.6041 -1.2492 -1.89854 0.441483 -0.236968 -0.801329 -0.410833 -3.52779 
194 3.38747 4.26008 52.6041 -1.41016 -1.71355 0.389833 -0.39066 -0.639452 0.587311 -3.52746 
195 -0.866323 4.2769 53.8949 -0.0508736 -0.206131 -1.18049 0.0793761 -1.26166 1.02744 -3.38132 
196 1.3298 4.1174 -56.3442 5.06942 2.90559 1.60242 -1.25473 -0.273892 0.110263 -2.79034 
197 -1.33605 6.40133 55.1665 4.18006 2.79745 1.28995 0.319923 -1.5232 0.197874 -3.26107 
198 1.00488 5.36129 55.1754 5.64207 6.63185 2.70774 0.369858 -0.63646 -0.0326236 -3.15047 
199 1.98371 6.26223 -55.1334 6.93988 9.11553 2.92916 0.134188 -0.847907 -0.525655 -3.02309 
200 3.34328 4.30996 55.1754 5.53064 7.35766 2.86911 0.118706 -0.278629 0.562632 -3.15115 
201 2.87095 2.09325 -56.362 4.04253 6.0065 1.881 -3.16453 0.252642 0.341788 -2.79939 
202 2.84551 2.1252 -53.8874 0.165009 0.763296 -3.02646 -0.982112 -0.732817 -0.162366 -3.51266 
203 3.53831 4.21674 -55.1525 6.03166 6.27391 1.75937 0.302437 -1.21951 -0.0444719 -3.1433 
204 5.07312 2.13635 -55.1525 6.04997 7.03886 2.00316 0.446066 -0.52812 0.0805355 -3.14511 
205 1.29262 4.16451 -53.8815 0.86127 -0.348247 -3.67504 -0.408881 -0.573881 0.839002 -3.51412 
206 1.24176 4.17585 -51.3147 -1.28676 -1.91096 -0.373576 -0.214933 -0.880567 0.220132 -3.53903 
207 1.90264 6.26187 -52.5941 -0.917836 -1.45681 -0.573037 -0.184182 -1.16804 0.819995 -3.52792 
208 3.4607 4.22944 -52.6036 -0.748865 -0.925828 0.0954639 -0.677536 -0.496072 0.191364 -3.53019 
209 1.82403 6.27282 -50.0101 -1.64246 -2.32521 -0.262005 -0.200449 -1.28163 0.433075 -3.53673 
210 5.01221 2.17771 -52.6036 -1.34184 -0.348557 0.0546394 -0.502575 0.019196 0.991504 -3.52952 
211 2.80522 2.14769 -51.32 -1.10365 -0.946828 -0.112536 -0.278071 -0.333001 0.261773 -3.53414 
212 2.77226 2.17461 -48.7405 -1.96824 -1.83645 -0.545117 -0.29159 -0.223656 0.338076 -3.53087 
213 3.40036 4.25787 -50.02 -1.43121 -1.6537 -0.138662 -0.408342 -0.7088 0.286371 -3.53497 
214 4.971 2.23184 -50.02 -1.84395 -1.27384 -0.113448 -0.296346 0.0208996 0.835999 -3.535 
215 1.18965 4.18043 -48.7355 -2.17765 -2.75532 -0.785312 -0.180364 -0.850147 0.284246 -3.5364 
216 1.13971 4.18651 -46.1539 -2.63668 -3.19104 -0.973433 -0.165182 -0.833696 0.402175 -3.53604 
217 1.74858 6.27865 -47.4305 -2.10007 -2.83267 -0.672887 -0.213679 -1.24118 0.546424 -3.53588 
218 3.345 4.2875 -47.4411 -1.89777 -2.20774 -0.561051 -0.301195 -0.639318 0.335982 -3.53414 
219 1.67464 6.29044 -44.8493 -2.4694 -3.19085 -0.861432 -0.201024 -1.24474 0.604677 -3.53533 
220 4.9348 2.28446 -47.4403 -2.32144 -1.78814 -0.540376 -0.21236 0.105797 0.865003 -3.53419 
221 2.74197 2.20191 -46.1593 -2.36403 -2.26776 -0.738332 -0.232009 -0.161476 0.392687 -3.53074 
222 2.71358 2.23054 -43.5775 -2.67626 -2.59067 -0.949819 -0.216196 -0.150104 0.412793 -3.53037 
223 3.29147 4.31968 -44.8604 -2.2335 -2.57298 -0.716374 -0.260854 -0.625273 0.371247 -3.53392 
224 4.90188 2.33752 -44.8595 -2.65657 -2.14333 -0.721658 -0.178351 0.143232 0.896171 -3.53392 
225 1.09054 4.19505 -43.572 -2.97521 -3.51136 -1.20147 -0.152983 -0.841604 0.427347 -3.53553 
226 1.04127 4.20428 -40.9908 -3.23477 -3.78661 -1.44276 -0.151021 -0.854626 0.433653 -3.53509 
227 1.6009 6.30392 -42.2683 -2.75157 -3.49733 -1.08864 -0.200641 -1.26249 0.620034 -3.53483 
228 3.23888 4.35332 -42.2794 -2.50685 -2.86952 -0.916434 -0.24404 -0.627646 0.388737 -3.5336 
229 1.5267 6.31808 -39.6884 -2.9621 -3.76458 -1.33259 -0.207739 -1.28157 0.623445 -3.53438 
230 4.8705 2.39145 -42.2785 -2.93976 -2.42579 -0.927378 -0.16783 0.154872 0.921085 -3.5336 
231 2.68574 2.2599 -40.9963 -2.93211 -2.85212 -1.18024 -0.213766 -0.148149 0.426507 -3.53006 
232 2.65799 2.28984 -38.4167 -3.14553 -3.06706 -1.42271 -0.218792 -0.147369 0.4378 -3.52981 
233 3.18652 4.38801 -39.6994 -2.72401 -3.1096 -1.14042 -0.238806 -0.632558 0.398954 -3.53333 
234 4.83969 2.44634 -39.6985 -3.17653 -2.64379 -1.15129 -0.168604 0.159577 0.942556 -3.53333 
235 0.99162 4.21377 -38.4113 -3.43407 -4.03107 -1.69396 -0.156273 -0.86695 0.434526 -3.53468 
236 0.941542 4.22348 -35.8343 -3.57487 -4.24151 -1.9498 -0.165888 -0.876815 0.429004 -3.53431 
237 1.45187 6.33274 -37.1107 -3.10415 -3.98822 -1.5849 -0.218595 -1.29733 0.618154 -3.53398 
238 3.13413 4.42363 -37.1215 -2.88539 -3.2933 -1.37455 -0.242311 -0.638876 0.401033 -3.53314 
239 1.37647 6.3479 -34.5362 -3.17875 -4.1572 -1.83193 -0.228961 -1.30935 0.599177 -3.53367 
240 4.80918 2.5022 -37.1205 -3.36396 -2.80026 -1.3841 -0.178948 0.159222 0.956255 -3.53314 
241 2.63023 2.32033 -35.8393 -3.31553 -3.23592 -1.66946 -0.230713 -0.149193 0.443444 -3.52963 
242 2.60246 2.35129 -33.2649 -3.4376 -3.35663 -1.91014 -0.249316 -0.156979 0.439588 -3.52955 
243 3.08166 4.46008 -34.5463 -2.9889 -3.41934 -1.60516 -0.253878 -0.649889 0.389738 -3.53306 
244 4.77889 2.5589 -34.5453 -3.4968 -2.89728 -1.61378 -0.199002 0.148838 0.957165 -3.53306 
245 0.891107 4.2334 -33.2602 -3.65666 -4.40902 -2.19888 -0.17651 -0.88449 0.413002 -3.53401 
246 0.84039 4.24344 -30.6896 -3.687 -4.53087 -2.42763 -0.185143 -0.89083 0.385449 -3.5338 
247 1.30062 6.36344 -31.9652 -3.19599 -4.2696 -2.05744 -0.235803 -1.31871 0.564168 -3.53349 
248 3.02899 4.49707 -31.9744 -3.03935 -3.49499 -1.8196 -0.271824 -0.666591 0.363905 -3.53307 
249 1.22438 6.37901 -29.3977 -3.17381 -4.33515 -2.2504 -0.238098 -1.32605 0.516666 -3.53342 
250 4.74865 2.61617 -31.9733 -3.57757 -2.94429 -1.8281 -0.227211 0.125994 0.945182 -3.53306 
251 2.57458 2.38255 -30.6937 -3.51321 -3.43344 -2.13346 -0.272826 -0.171389 0.426019 -3.52954 
252 2.54646 2.41387 -28.1258 -3.55094 -3.47691 -2.33101 -0.298319 -0.190072 0.406068 -3.52957 
253 2.97596 4.53417 -29.4059 -3.04925 -3.53431 -2.00956 -0.293167 -0.686599 0.328017 -3.53312 
254 4.71819 2.67368 -29.4046 -3.61671 -2.95665 -2.01843 -0.260204 0.0934696 0.924767 -3.5331 
255 0.789432 4.2534 -28.1224 -3.68062 -4.61299 -2.62639 -0.190013 -0.896302 0.349495 -3.53368 
256 0.738242 4.26307 -25.5582 -3.65272 -4.66509 -2.79161 -0.190584 -0.90097 0.309762 -3.53362 
257 1.14778 6.39421 -26.8335 -3.12976 -4.36762 -2.40748 -0.236035 -1.33144 0.462774 -3.53343 
258 2.9224 4.57102 -26.8405 -3.03282 -3.55106 -2.1717 -0.314672 -0.706918 0.28805 -3.53318 
259 1.07082 6.40874 -24.2719 -3.07707 -4.37939 -2.53097 -0.230126 -1.33513 0.407915 -3.53347 
260 4.68719 2.73114 -26.8391 -3.62667 -2.94904 -2.18078 -0.294358 0.0561694 0.900909 -3.53316 
261 2.51795 2.44505 -25.561 -3.56183 -3.49864 -2.49884 -0.323059 -0.210067 0.383692 -3.52962 
262 2.48896 2.47595 -22.9988 -3.55578 -3.50804 -2.63687 -0.345224 -0.229241 0.361727 -3.52967 
263 2.86821 4.60734 -24.2778 -3.0019 -3.55549 -2.30613 -0.333821 -0.725486 0.248518 -3.53323 
264 4.65544 2.78836 -24.2763 -3.61819 -2.93242 -2.31488 -0.327019 0.0183831 0.877168 -3.53321 
265 0.686827 4.27224 -22.9967 -3.61508 -4.69667 -2.92449 -0.187108 -0.904857 0.270065 -3.5336 
266 0.635194 4.28082 -20.4373 -3.57544 -4.71521 -3.0288 -0.180199 -0.908114 0.232727 -3.5336 
267 0.993524 6.42238 -21.7126 -3.02423 -4.37967 -2.62581 -0.220945 -1.33766 0.355595 -3.53353 
268 2.81334 4.64294 -21.7174 -2.96491 -3.55429 -2.41499 -0.349183 -0.741374 0.211903 -3.53327 
269 0.915912 6.43499 -19.1551 -2.97596 -4.37455 -2.69745 -0.209105 -1.33965 0.30752 -3.53359 
270 4.6228 2.84522 -21.7158 -3.59931 -2.91385 -2.42285 -0.356726 -0.0171795 0.855523 -3.53325 
271 2.45945 2.50648 -20.4388 -3.54028 -3.51156 -2.74752 -0.36394 -0.246511 0.341669 -3.52971 
272 2.42941 2.5366 -17.8807 -3.52036 -3.51311 -2.83439 -0.379032 -0.261583 0.324041 -3.52975 
273 2.75778 4.67776 -19.1589 -2.92717 -3.55149 -2.50141 -0.36028 -0.754487 0.179147 -3.5333 
274 4.58921 2.90164 -19.1573 -3.57547 -2.89735 -2.50803 -0.38293 -0.0492801 0.836792 -3.53328 
275 0.583356 4.28874 -17.8797 -3.53827 -4.72601 -3.10917 -0.170577 -0.911003 0.198783 -3.5336 
276 0.531324 4.29595 -15.3234 -3.50573 -4.73247 -3.17012 -0.158937 -0.913822 0.168421 -3.53361 
277 0.838002 6.44651 -16.599 -2.93434 -4.36773 -2.75091 -0.195241 -1.34167 0.264149 -3.53365 
278 2.70155 4.71174 -16.602 -2.89167 -3.54922 -2.56883 -0.367267 -0.765188 0.150267 -3.53332 
279 0.759806 6.45694 -14.0439 -2.89968 -4.36121 -2.79031 -0.179964 -1.34409 0.225229 -3.53369 
280 4.55467 2.95759 -16.6003 -3.55008 -2.88486 -2.57409 -0.405645 -0.0776979 0.821074 -3.53331 
281 2.39884 2.56629 -15.324 -3.49917 -3.51483 -2.90139 -0.390739 -0.27463 0.308806 -3.52977 
282 2.36775 2.59555 -12.7685 -3.47843 -3.51768 -2.95214 -0.399512 -0.286039 0.295655 -3.52979 
283 2.64467 4.74489 -14.0462 -2.85974 -3.54847 -2.62056 -0.370646 -0.774019 0.124818 -3.53333 
284 4.51919 3.01305 -14.0446 -3.52508 -2.87695 -2.62451 -0.425189 -0.102783 0.808076 -3.53332 
285 0.479108 4.30245 -12.7682 -3.47846 -4.73665 -3.21559 -0.145892 -0.916826 0.141372 -3.53362 
286 0.426711 4.30824 -10.2137 -3.45608 -4.7397 -3.24885 -0.131956 -0.920151 0.117168 -3.53362 
287 0.68133 6.46626 -11.4896 -2.87122 -4.35593 -2.8189 -0.163812 -1.34711 0.190178 -3.53373 
288 2.58718 4.77721 -11.4914 -2.83165 -3.5495 -2.65956 -0.371054 -0.781501 0.102183 -3.53334 
289 0.602577 6.4745 -8.93595 -2.84756 -4.35215 -2.83915 -0.147201 -1.35063 0.158303 -3.53375 
290 4.48279 3.06803 -11.4897 -3.50138 -2.87345 -2.66229 -0.442017 -0.125122 0.797326 -3.53333 
291 2.33618 2.62437 -10.2138 -3.45891 -3.52189 -2.98983 -0.405883 -0.296219 0.284188 -3.5298 
292 2.30412 2.65277 -7.65972 -3.44075 -3.52732 -3.01702 -0.410381 -0.305491 0.274013 -3.52981 
293 2.52908 4.80872 -8.93719 -2.80697 -3.55217 -2.68832 -0.369131 -0.788009 0.0817393 -3.53334 
294 4.4455 3.12251 -8.93556 -3.47923 -2.87378 -2.6899 -0.456609 -0.14532 0.788302 -3.53334 
295 0.374133 4.31333 -7.65984 -3.43769 -4.74213 -3.27241 -0.117544 -0.923736 0.0952754 -3.53362 
296 0.321378 4.31774 -5.10638 -3.42219 -4.74412 -3.28817 -0.102965 -0.927293 0.075146 -3.53363 
297 0.523555 6.48167 -6.38268 -2.82717 -4.34977 -2.85283 -0.130403 -1.3543 0.128903 -3.53377 
298 2.47042 4.83942 -6.38351 -2.78495 -3.55616 -2.70877 -0.365426 -0.793715 0.0629385 -3.53334 
299 0.444287 6.48779 -3.82971 -2.8088 -4.34853 -2.86113 -0.11352 -1.35752 0.101299 -3.53378 
300 4.40736 3.17651 -6.38189 -3.45846 -2.87727 -2.70921 -0.46939 -0.163883 0.780502 -3.53334 
301 2.27159 2.68076 -5.10609 -3.42372 -3.53368 -3.03568 -0.413466 -0.314035 0.264788 -3.52982 
302 2.2386 2.70832 -2.55275 -3.40748 -3.54074 -3.04715 -0.415456 -0.321886 0.256226 -3.52982 
303 2.4112 4.86934 -3.83018 -2.76479 -3.56121 -2.72231 -0.36031 -0.798592 0.0453318 -3.53334 
304 4.36837 3.23001 -3.82856 -3.43878 -2.88332 -2.72159 -0.480654 -0.181175 0.773484 -3.53335 
305 0.268463 4.32147 -2.55319 -3.40862 -4.74567 -3.29735 -0.0884007 -0.930326 0.0562271 -3.53363 
306 0.364821 6.49289 -1.27694 -2.79189 -4.34821 -2.86473 -0.0964877 -1.35962 0.0748413 -3.5338 
307 2.35148 4.89846 -1.27706 -2.74598 -3.56723 -2.72978 -0.353919 -0.802485 0.0285599 -3.53335 
308 4.32858 3.28299 -1.27544 -3.41994 -2.89162 -2.72786 -0.490501 -0.197434 0.766885 -3.53335 
309 2.43639 7.09067 -0.000756183 -2.22118 -3.36385 -2.40269 -0.317659 -1.20923 -0.188491 -3.53289 
310 0.434651 8.66784 -0.000957681 -2.25255 -4.02077 -2.49713 -0.100058 -1.74664 0.082785 -3.53355 