ITEM: TIMESTEP
934
ITEM: NUMBER OF ATOMS
37664
ITEM: BOX BOUNDS ff ff ff
-100 100
-100 100
-156.15 156.15
ITEM: ATOMS id x y z v_peratom_sxx v_peratom_syy v_peratom_szz v_peratom_sxy v_peratom_sxz v_peratom_syz c_atomPE 
1 -0.00369458 -0.00219558 0.00105405 -5.17903 -5.1717 -9.53856 0.000318899 -0.0114469 -0.0277792 -3.51528 
2 -0.00399901 -0.00207826 2.5543 -5.17834 -5.17093 -9.53764 -0.000111758 -0.0136801 -0.0266151 -3.51527 
3 -0.00433153 -0.00190586 5.10762 -5.17314 -5.16604 -9.527 -0.000802391 -0.014024 -0.0253941 -3.51532 
4 -0.00467825 -0.00168333 7.66113 -5.1626 -5.15642 -9.50511 -0.0017385 -0.0119361 -0.0242574 -3.51541 
5 -0.005014 -0.00142548 10.215 -5.14576 -5.14121 -9.46987 -0.00282448 -0.0072906 -0.0232001 -3.51557 
6 -0.00530571 -0.0011528 12.7694 -5.12155 -5.11926 -9.41863 -0.00390289 -0.000463429 -0.0220698 -3.5158 
7 -0.00551882 -0.000885752 15.3246 -5.08866 -5.08901 -9.34821 -0.0048047 0.00774575 -0.0206479 -3.51612 
8 -0.00562455 -0.000639903 17.8809 -5.04526 -5.04829 -9.25474 -0.00540195 0.0163208 -0.0187604 -3.51655 
9 -0.00560544 -0.000423772 20.4386 -4.98865 -4.99407 -9.13355 -0.00563818 0.0242691 -0.0163593 -3.5171 
10 -0.00545783 -0.000239362 22.998 -4.91496 -4.92224 -8.97917 -0.00553115 0.030811 -0.0135504 -3.5178 
11 -0.00519108 -8.45242e-05 25.5597 -4.81892 -4.82739 -8.78599 -0.00515528 0.0354826 -0.0105708 -3.51866 
12 -0.00482439 4.41077e-05 28.124 -4.69415 -4.70316 -8.54987 -0.00461448 0.0381537 -0.00773043 -3.51969 
13 -0.00438204 0.000148786 30.6914 -4.53468 -4.54364 -8.27124 -0.00401372 0.0389816 -0.00533315 -3.52089 
14 -0.00388847 0.000229693 33.262 -4.33874 -4.34725 -7.95886 -0.0034362 0.038329 -0.00359624 -3.5222 
15 -0.00336404 0.000285343 35.8358 -4.11408 -4.12189 -7.63022 -0.00293145 0.0366667 -0.00259925 -3.52347 
16 -0.00282253 0.000313488 38.4125 -3.87667 -3.88364 -7.30368 -0.00251514 0.0344733 -0.00228985 -3.52458 
17 -0.0022701 0.00031147 40.9917 -3.63808 -3.64418 -6.98572 -0.00217547 0.0321625 -0.00254411 -3.52548 
18 -0.00170283 0.000276077 43.5731 -3.39928 -3.40449 -6.66357 -0.00187748 0.0301256 -0.00322095 -3.5262 
19 -0.0011027 0.000203124 46.1569 -3.13507 -3.13928 -6.30046 -0.0015502 0.0287371 -0.00417001 -3.52695 
20 -0.000440318 8.42019e-05 48.7435 -2.75187 -2.75412 -5.86106 -0.000860803 0.0278134 -0.00533456 -3.52782 
21 5.95933e-07 -4.11185e-08 51.3317 -1.92305 -1.92289 -4.91975 8.03215e-05 -0.00140369 0.000264796 -3.53203 
22 4.01304e-07 -1.42881e-06 53.9138 -0.851923 -0.851932 -8.91778 7.45193e-07 -2.99041e-05 -7.14247e-05 -3.48169 
23 8.71386e-07 -1.98378e-06 56.3885 1.68558 1.68559 1.87686 -1.64326e-05 2.4952e-05 -1.35402e-07 -2.55581 
24 -1.23087e-07 -1.12453e-06 -53.8876 -2.60692 -2.60694 -6.54959 -1.86276e-05 1.02769e-05 -3.28299e-05 -3.40183 
25 1.02659e-07 -1.55837e-06 -51.3239 -2.07916 -2.07935 -5.57952 -0.000272568 0.000652502 0.0014722 -3.52873 
26 -0.000165894 -0.000418702 -48.7462 -2.6947 -2.69199 -6.14781 0.00357847 -0.0105282 -0.0261532 -3.5264 
27 -0.000386328 -0.0010081 -46.1646 -3.0219 -3.01708 -6.34786 0.00632808 -0.00867986 -0.0244565 -3.52678 
28 -0.000547561 -0.00145721 -43.5822 -3.3036 -3.29692 -6.60828 0.00693214 -0.00524659 -0.0231917 -3.52635 
29 -0.000651435 -0.00180017 -41.0007 -3.55935 -3.55059 -6.89676 0.0068305 -0.00145532 -0.0223348 -3.52574 
30 -0.000717487 -0.00205633 -38.421 -3.80998 -3.79916 -7.2057 0.00624808 0.00235471 -0.0217201 -3.52491 
31 -0.000768334 -0.00223753 -35.8434 -4.05671 -4.04408 -7.53104 0.00530494 0.00583502 -0.0212635 -3.52384 
32 -0.000827213 -0.00235417 -33.2686 -4.29009 -4.27614 -7.8616 0.00414076 0.00861499 -0.0209901 -3.52261 
33 -0.00091469 -0.002418 -30.6969 -4.49702 -4.48241 -8.17972 0.00293015 0.0104131 -0.02098 -3.52132 
34 -0.00104471 -0.00244204 -28.1284 -4.66894 -4.65439 -8.46826 0.00184924 0.0111373 -0.0213064 -3.5201 
35 -0.00122186 -0.0024391 -25.5629 -4.80488 -4.79101 -8.71666 0.00102813 0.0109166 -0.0219859 -3.51901 
36 -0.00144104 -0.0024201 -23.0002 -4.90892 -4.89617 -8.92198 0.000518803 0.010038 -0.0229633 -3.5181 
37 -0.00168972 -0.00239348 -20.4399 -4.98698 -4.97556 -9.08663 0.000293073 0.00881578 -0.0241354 -3.51736 
38 -0.00195211 -0.00236553 -17.8814 -5.04486 -5.03477 -9.21569 0.00026876 0.00745572 -0.0253879 -3.51678 
39 -0.00221382 -0.00234106 -15.3245 -5.08748 -5.07857 -9.31496 0.000349255 0.00597628 -0.0266157 -3.51632 
40 -0.00246566 -0.00232343 -12.7687 -5.11868 -5.1107 -9.38997 0.000457337 0.00422434 -0.0277193 -3.51597 
41 -0.00270543 -0.00231333 -10.2138 -5.14133 -5.13398 -9.44553 0.000549202 0.00197796 -0.0285878 -3.51572 
42 -0.00293775 -0.00230704 -7.65953 -5.15752 -5.15051 -9.48558 0.000606258 -0.000908732 -0.0290974 -3.51553 
43 -0.00317229 -0.00229518 -5.10574 -5.16871 -5.16175 -9.51319 0.000613301 -0.0043762 -0.0291408 -3.5154 
44 -0.00342096 -0.00226344 -2.55225 -5.17577 -5.16865 -9.53046 0.000537133 -0.00808916 -0.0286784 -3.51532 
45 0.0924207 2.15788 1.27692 -4.05624 -5.14027 -3.83749 -0.0511086 -0.452252 0.00374905 -3.52907 
46 0.0657414 2.15903 3.83011 -4.05002 -5.13942 -3.83168 -0.0397894 -0.452457 -0.00542197 -3.52908 
47 0.0390596 2.15988 6.38343 -4.04449 -5.13624 -3.81752 -0.028433 -0.451039 -0.0150171 -3.5291 
48 0.0124276 2.16043 8.93703 -4.04043 -5.13052 -3.79377 -0.016805 -0.448061 -0.025286 -3.52913 
49 -0.0140989 2.16066 11.4911 -4.03888 -5.12187 -3.75879 -0.00473964 -0.443926 -0.0364086 -3.52918 
50 -0.0404706 2.16053 14.0458 -4.04078 -5.10956 -3.71052 0.00774023 -0.439242 -0.0485667 -3.52922 
51 -0.0666518 2.16004 16.6015 -4.0466 -5.09237 -3.64632 0.0203699 -0.434632 -0.0620122 -3.52928 
52 -0.0926248 2.15918 19.1583 -4.05603 -5.06836 -3.56287 0.0326612 -0.430583 -0.0770812 -3.52935 
53 -0.11839 2.15796 21.7168 -4.06757 -5.03462 -3.4561 0.0439641 -0.427366 -0.0941168 -3.52943 
54 -0.143962 2.15639 24.2771 -4.07799 -4.98691 -3.32139 0.0535492 -0.42503 -0.113253 -3.52953 
55 -0.169368 2.15452 26.8399 -4.08151 -4.91922 -3.15435 0.0607157 -0.423427 -0.134012 -3.52967 
56 -0.194635 2.15241 29.4055 -4.06863 -4.82386 -2.95253 0.0649675 -0.422264 -0.154739 -3.52986 
57 -0.219788 2.15015 31.9742 -4.02605 -4.69268 -2.71801 0.0662975 -0.421137 -0.172298 -3.53012 
58 -0.244832 2.14783 34.5463 -3.93991 -4.52129 -2.45977 0.0655007 -0.419544 -0.183194 -3.53047 
59 -0.269742 2.1455 37.1216 -3.80464 -4.31509 -2.19204 0.0641331 -0.4169 -0.187144 -3.53087 
60 -0.294479 2.1431 39.6995 -3.62853 -4.08874 -1.92629 0.0637624 -0.412734 -0.189186 -3.53128 
61 -0.319018 2.14052 42.2798 -3.42349 -3.85298 -1.66283 0.0651046 -0.407139 -0.195415 -3.53164 
62 -0.343395 2.13769 44.8621 -3.19601 -3.60468 -1.39029 0.0674054 -0.400685 -0.212403 -3.53193 
63 -0.367768 2.13484 47.4464 -2.91615 -3.29371 -1.10606 0.0673333 -0.395797 -0.231869 -3.53223 
64 -0.392512 2.13371 50.032 -2.43433 -2.80059 -0.495109 0.0605504 -0.41468 -0.20119 -3.53323 
65 -0.418483 2.1304 52.6263 -1.76578 -2.00551 -0.561404 0.0455015 -0.308929 -0.73001 -3.52457 
66 -0.44812 2.14653 55.1778 6.9766 7.73843 2.43089 0.0330184 -0.597321 1.77021 -3.02528 
67 0.649859 2.05055 -55.162 1.38945 0.842395 -0.678343 -0.188252 -0.0991976 1.20762 -3.26036 
68 0.633027 2.08274 -52.6122 -1.11197 -2.21867 -0.457719 -0.374492 -0.489286 -0.161478 -3.53566 
69 0.607028 2.08678 -50.0319 -2.0028 -2.55494 -0.871653 -0.170202 -0.429428 0.0813446 -3.53399 
70 0.581333 2.08835 -47.4532 -2.63794 -3.07131 -1.20678 -0.127084 -0.403084 0.155292 -3.5329 
71 0.55654 2.09191 -44.8712 -3.05936 -3.44061 -1.36675 -0.106809 -0.397452 0.198784 -3.53225 
72 0.531931 2.09624 -42.2892 -3.35836 -3.72611 -1.59569 -0.0983283 -0.401181 0.210418 -3.53183 
73 0.507213 2.10078 -39.7085 -3.60211 -3.98209 -1.84635 -0.0972002 -0.406539 0.216391 -3.53141 
74 0.48229 2.10541 -37.1298 -3.80447 -4.22013 -2.11001 -0.101661 -0.411462 0.219926 -3.53097 
75 0.457157 2.11012 -34.5537 -3.96226 -4.43515 -2.37952 -0.110056 -0.415579 0.218682 -3.53055 
76 0.431847 2.11492 -31.9806 -4.0712 -4.61734 -2.64279 -0.120052 -0.4192 0.209952 -3.53018 
77 0.406385 2.11974 -29.4108 -4.13459 -4.76148 -2.8861 -0.129112 -0.422618 0.193727 -3.52988 
78 0.380786 2.1245 -26.8442 -4.16283 -4.86968 -3.09942 -0.135383 -0.425864 0.172593 -3.52965 
79 0.355056 2.12909 -24.2805 -4.16783 -4.94832 -3.2785 -0.138051 -0.428844 0.14962 -3.52948 
80 0.329203 2.13344 -21.7193 -4.15953 -5.00459 -3.4239 -0.137131 -0.431486 0.127069 -3.52936 
81 0.303238 2.13749 -19.1602 -4.14494 -5.04474 -3.539 -0.133081 -0.433807 0.106193 -3.52927 
82 0.277176 2.14121 -16.6028 -4.1285 -5.07358 -3.62825 -0.126509 -0.435918 0.0874816 -3.52921 
83 0.251028 2.14459 -14.0466 -4.11278 -5.09452 -3.69619 -0.11801 -0.437997 0.0709688 -3.52916 
84 0.2248 2.14763 -11.4914 -4.09899 -5.1099 -3.74692 -0.108106 -0.440228 0.0564719 -3.52912 
85 0.198492 2.15033 -8.93701 -4.08746 -5.12126 -3.78388 -0.0972473 -0.442731 0.0437257 -3.5291 
86 0.172099 2.15269 -6.3831 -4.07793 -5.12956 -3.8098 -0.0858258 -0.445482 0.0324332 -3.52908 
87 0.14562 2.15472 -3.82957 -4.06992 -5.13536 -3.82669 -0.0741789 -0.44827 0.0222642 -3.52907 
88 0.119056 2.15645 -1.27627 -4.06283 -5.1389 -3.83575 -0.0625628 -0.450696 0.0128413 -3.52906 
89 0.215389 4.32455 -0.000175514 -3.39664 -4.74657 -3.30055 -0.0738721 -0.932545 0.0381073 -3.53364 
90 0.285192 6.49698 1.27573 -2.77645 -4.34854 -2.86381 -0.079253 -1.36029 0.0489889 -3.53381 
91 2.20515 2.73546 0.000420947 -3.39186 -3.54827 -3.05203 -0.41642 -0.329088 0.24813 -3.52983 
92 2.17132 2.76218 2.55357 -3.37635 -3.55677 -3.05084 -0.416406 -0.33537 0.240206 -3.52983 
93 2.29128 4.92679 1.27596 -2.72838 -3.57406 -2.73149 -0.346233 -0.805392 0.0122949 -3.53335 
94 4.28799 3.33543 1.2776 -3.40183 -2.9019 -2.7283 -0.49883 -0.212904 0.760422 -3.53335 
95 0.162257 4.327 2.55279 -3.38562 -4.74712 -3.29784 -0.0593837 -0.932813 0.019955 -3.53365 
96 0.109122 4.3288 5.10582 -3.37713 -4.74729 -3.28885 -0.0445146 -0.931237 0.0014624 -3.53366 
97 0.205571 6.50006 3.82842 -2.76413 -4.35003 -2.85833 -0.0613586 -1.35889 0.0229962 -3.53382 
98 2.23071 4.9543 3.829 -2.71242 -3.58246 -2.72734 -0.336795 -0.806879 -0.00372379 -3.53335 
99 0.126045 6.50211 6.38123 -2.75713 -4.35279 -2.848 -0.042706 -1.3561 -0.00357828 -3.53383 
100 4.24671 3.3873 3.83068 -3.38465 -2.91479 -2.72309 -0.505322 -0.227591 0.753865 -3.53336 
101 2.13714 2.78844 5.1068 -3.36151 -3.56646 -3.04299 -0.414873 -0.340767 0.232354 -3.52983 
102 2.10264 2.81421 7.66027 -3.34804 -3.57766 -3.0276 -0.411297 -0.345413 0.224397 -3.52983 
103 2.16985 4.98096 6.38219 -2.69948 -3.5925 -2.71675 -0.325213 -0.807304 -0.0198398 -3.53336 
104 4.20477 3.43857 6.38393 -3.36915 -2.93043 -2.71165 -0.50946 -0.241789 0.747067 -3.53336 
105 0.0560697 4.32994 7.65905 -3.37277 -4.74725 -3.27291 -0.0290061 -0.928077 -0.0177657 -3.53368 
106 0.00318004 4.3304 10.2126 -3.37431 -4.7471 -3.24906 -0.0127469 -0.923951 -0.0381052 -3.53369 
107 0.0467175 6.50312 8.9343 -2.75752 -4.35717 -2.83234 -0.0233273 -1.35265 -0.031268 -3.53383 
108 2.10876 5.00674 8.93567 -2.69105 -3.60436 -2.69889 -0.311167 -0.80714 -0.0365112 -3.53336 
109 -0.032331 6.50307 11.4878 -2.76686 -4.36342 -2.81061 -0.00345261 -1.34941 -0.06066 -3.53382 
110 4.1622 3.48918 8.93746 -3.3562 -2.94914 -2.69312 -0.510754 -0.255874 0.73985 -3.53336 
111 2.06789 2.83947 10.2141 -3.33689 -3.59053 -3.00338 -0.405173 -0.34966 0.216097 -3.52983 
112 2.03293 2.86418 12.7685 -3.32903 -3.60493 -2.96865 -0.396131 -0.35407 0.207101 -3.52982 
113 2.0475 5.0316 11.4896 -2.68854 -3.61801 -2.67266 -0.294512 -0.807079 -0.0543476 -3.53336 
114 4.11906 3.53911 11.4914 -3.34671 -2.97114 -2.6663 -0.508786 -0.270403 0.731953 -3.53336 
115 -0.0494817 4.33015 12.7668 -3.38326 -4.74673 -3.21604 0.00414801 -0.919611 -0.0599767 -3.5337 
116 -0.101874 4.32918 15.3217 -3.40053 -4.7457 -3.17207 0.0213394 -0.915714 -0.0838932 -3.53371 
117 -0.111054 6.50192 14.0419 -2.78606 -4.37157 -2.78169 0.0165389 -1.3471 -0.0924315 -3.5338 
118 1.98612 5.05551 14.0442 -2.69303 -3.63315 -2.63659 -0.27527 -0.807912 -0.0741083 -3.53336 
119 -0.189432 6.49966 16.5968 -2.81531 -4.3813 -2.74382 0.0361946 -1.34611 -0.127353 -3.53376 
120 4.07537 3.58832 14.046 -3.34145 -2.99644 -2.6296 -0.503233 -0.286092 0.722974 -3.53336 
121 1.99779 2.88833 15.3237 -3.32518 -3.62037 -2.92132 -0.383979 -0.359342 0.196923 -3.52981 
122 1.96249 2.91188 17.8799 -3.32557 -3.63587 -2.85882 -0.368668 -0.366218 0.184962 -3.52979 
123 1.92465 5.07845 16.5996 -2.70513 -3.64916 -2.5888 -0.253576 -0.810404 -0.0966621 -3.53335 
124 4.03115 3.63678 16.6015 -3.34088 -3.02481 -2.58103 -0.493856 -0.30377 0.712347 -3.53336 
125 -0.153979 4.32747 17.8776 -3.4263 -4.74301 -3.1147 0.0383231 -0.912675 -0.110456 -3.53371 
126 -0.2058 4.32504 20.4347 -3.45993 -4.73695 -3.04063 0.0545015 -0.910608 -0.140272 -3.5337 
127 -0.267471 6.49629 19.1527 -2.85425 -4.39177 -2.69444 0.0550623 -1.3465 -0.166236 -3.53371 
128 1.86307 5.10038 19.1561 -2.72483 -3.66504 -2.52686 -0.229606 -0.815211 -0.122907 -3.53334 
129 -0.345183 6.49181 21.7099 -2.9019 -4.40131 -2.63 0.0727398 -1.34795 -0.209784 -3.53364 
130 3.9864 3.68447 19.158 -3.34495 -3.05566 -2.51814 -0.48047 -0.324304 0.699345 -3.53334 
131 1.92702 2.93483 20.4374 -3.32963 -3.64991 -2.77803 -0.350252 -0.375375 0.170561 -3.52976 
132 1.89139 2.95717 22.9966 -3.33572 -3.66002 -2.67536 -0.328883 -0.387298 0.153145 -3.52973 
133 1.80138 5.1213 21.7141 -2.75143 -3.67917 -2.44774 -0.203564 -0.822835 -0.153622 -3.53331 
134 3.9411 3.73134 21.716 -3.35293 -3.08786 -2.43806 -0.462958 -0.348488 0.683155 -3.53332 
135 -0.257353 4.3219 22.9936 -3.49964 -4.72465 -2.94565 0.0692365 -0.909358 -0.17375 -3.5337 
136 -0.308664 4.31809 25.5544 -3.54194 -4.70161 -2.82486 0.0818697 -0.908595 -0.210706 -3.5337 
137 -0.422586 6.48626 24.2687 -2.95636 -4.40695 -2.54577 0.088887 -1.34984 -0.258286 -3.53357 
138 1.73956 5.14119 24.2738 -2.78322 -3.689 -2.34789 -0.175743 -0.833564 -0.189201 -3.53328 
139 -0.499695 6.47971 26.8296 -3.01411 -4.40367 -2.43598 0.103178 -1.35145 -0.311065 -3.53351 
140 3.89527 3.77738 24.2756 -3.36306 -3.11933 -2.33755 -0.441379 -0.376847 0.66304 -3.53329 
141 1.85559 2.97892 25.558 -3.34047 -3.66236 -2.54699 -0.3049 -0.402071 0.132503 -3.52968 
142 1.81963 3.00011 28.1218 -3.33787 -3.65093 -2.38958 -0.279052 -0.418982 0.109295 -3.52962 
143 1.67761 5.16011 26.8357 -2.81678 -3.69052 -2.22364 -0.146713 -0.847328 -0.22916 -3.53323 
144 3.84892 3.8226 26.8375 -3.37191 -3.14638 -2.21319 -0.416201 -0.409244 0.638696 -3.53324 
145 -0.359764 4.31371 28.1177 -3.58044 -4.66098 -2.67329 0.0917366 -0.907926 -0.249738 -3.53373 
146 -0.41068 4.3089 30.684 -3.60425 -4.59321 -2.48761 0.0982508 -0.906953 -0.287528 -3.53381 
147 -0.576523 6.47234 29.393 -3.0686 -4.38349 -2.29443 0.115186 -1.35207 -0.365679 -3.53348 
148 1.61556 5.17815 29.4002 -2.84582 -3.67758 -2.07181 -0.117646 -0.863316 -0.271373 -3.53318 
149 -0.653082 6.46443 31.9595 -3.10832 -4.33453 -2.11633 0.124252 -1.35119 -0.417167 -3.5335 
150 3.80213 3.86705 29.4019 -3.37339 -3.16272 -2.0619 -0.388652 -0.4442 0.610883 -3.53318 
151 1.78357 3.02085 30.6886 -3.31817 -3.61692 -2.20162 -0.25282 -0.435972 0.0857813 -3.52957 
152 1.74753 3.04133 33.2586 -3.26769 -3.54917 -1.98529 -0.228577 -0.449376 0.0662116 -3.52956 
153 1.55347 5.19556 31.9678 -2.8595 -3.64116 -1.89092 -0.0906419 -0.87929 -0.311204 -3.53312 
154 3.75508 3.91088 31.9692 -3.35725 -3.15832 -1.88184 -0.361031 -0.478051 0.582284 -3.53311 
155 -0.461424 4.30389 33.2536 -3.59718 -4.48693 -2.26898 0.101182 -0.905136 -0.318884 -3.53397 
156 -0.511969 4.2989 35.8266 -3.54118 -4.33319 -2.02609 0.10112 -0.901504 -0.339224 -3.53423 
157 -0.729367 6.45635 34.5294 -3.11538 -4.24127 -1.90199 0.12957 -1.34826 -0.458428 -3.53363 
158 1.4915 5.21268 34.5386 -2.8414 -3.56918 -1.68269 -0.0686308 -0.890929 -0.341588 -3.53309 
159 -0.805318 6.44849 37.103 -3.06826 -4.089 -1.66157 0.130857 -1.34191 -0.483734 -3.53389 
160 3.70805 3.95433 34.54 -3.30812 -3.11917 -1.67419 -0.336521 -0.504867 0.557905 -3.53308 
161 1.71169 3.06174 35.832 -3.17221 -3.43763 -1.74781 -0.208982 -0.455216 0.0551683 -3.52962 
162 1.67619 3.08219 38.4085 -3.02593 -3.28049 -1.49999 -0.195137 -0.452997 0.052339 -3.52978 
163 1.42988 5.2299 37.1129 -2.77231 -3.44888 -1.45405 -0.0542691 -0.892867 -0.356504 -3.53314 
164 3.66142 3.99768 37.1141 -3.20764 -3.03094 -1.44563 -0.317915 -0.519145 0.542956 -3.53313 
165 -0.562241 4.29398 38.4028 -3.42713 -4.13434 -1.77417 0.0997574 -0.894802 -0.35002 -3.53458 
166 -0.612148 4.28897 40.9816 -3.26247 -3.90644 -1.52567 0.0993391 -0.884425 -0.360216 -3.53492 
167 -0.880809 6.44093 39.6798 -2.95516 -3.87731 -1.41505 0.129384 -1.33034 -0.496119 -3.53425 
168 1.36885 5.24742 39.6902 -2.64154 -3.27557 -1.21686 -0.0479185 -0.883738 -0.359137 -3.53331 
169 -0.955735 6.4334 42.2589 -2.78439 -3.62639 -1.1803 0.127886 -1.31343 -0.508303 -3.53461 
170 3.61542 4.04109 39.6913 -3.04544 -2.88859 -1.20855 -0.305606 -0.522009 0.53609 -3.5333 
171 1.64104 3.10262 40.9876 -2.83716 -3.08668 -1.2496 -0.185348 -0.447886 0.0497843 -3.53 
172 1.60614 3.12288 43.5687 -2.61583 -2.86434 -0.994332 -0.177081 -0.446359 0.0392672 -3.53027 
173 1.30846 5.26509 42.2698 -2.45547 -3.05847 -0.98128 -0.0467409 -0.869966 -0.363836 -3.53355 
174 3.57001 4.08447 42.2709 -2.82888 -2.7006 -0.974747 -0.297399 -0.523202 0.52649 -3.53354 
175 -0.661676 4.28369 43.5624 -3.05836 -3.66003 -1.28018 0.101048 -0.871174 -0.37815 -3.53523 
176 -0.710993 4.27811 46.1447 -2.82678 -3.3934 -1.01799 0.104118 -0.85723 -0.409093 -3.53549 
177 -1.03015 6.42571 44.8395 -2.56308 -3.34342 -0.964226 0.127789 -1.29347 -0.525459 -3.53495 
178 1.24856 5.28277 44.851 -2.22139 -2.80255 -0.748884 -0.0489698 -0.859977 -0.382036 -3.53386 
179 -1.10443 6.41817 47.4204 -2.29846 -3.01767 -0.779255 0.13 -1.27508 -0.537608 -3.53528 
180 3.52497 4.12775 44.852 -2.5633 -2.47451 -0.749985 -0.290638 -0.531586 0.505642 -3.53383 
181 1.57129 3.14295 46.1516 -2.36653 -2.61632 -0.71672 -0.16995 -0.455917 0.0126076 -3.53054 
182 1.53636 3.16327 48.7364 -2.09017 -2.36099 -0.34599 -0.182727 -0.478798 -0.0259141 -3.53015 
183 1.1887 5.30046 47.4331 -1.94583 -2.5056 -0.517989 -0.0628619 -0.866553 -0.426576 -3.53411 
184 3.48005 4.171 47.4338 -2.24251 -2.22061 -0.541896 -0.285317 -0.557938 0.462277 -3.53403 
185 -0.760609 4.27328 48.7285 -2.60408 -3.07515 -0.672045 0.0974581 -0.849644 -0.413229 -3.53515 
186 -0.811621 4.26877 51.3169 -1.98849 -2.35115 0.31051 0.0838809 -0.841709 -0.653438 -3.53805 
187 -1.17889 6.41384 50.0002 -2.05966 -2.54263 -0.336536 0.0873616 -1.28002 -0.616723 -3.53572 
188 1.12775 5.31799 50.0156 -1.56908 -2.0788 -0.0206258 -0.110957 -0.945821 -0.595125 -3.53485 
189 -1.25707 6.40546 52.5877 -1.61234 -2.48688 0.643303 0.17576 -1.31617 -0.61314 -3.53282 
190 3.43505 4.21346 50.0156 -1.75824 -1.85272 -0.0377662 -0.309221 -0.66824 0.314311 -3.53491 
191 1.50027 3.18358 51.3264 -1.43157 -1.70132 0.658616 -0.172625 -0.548366 -0.13336 -3.53273 
192 1.46587 3.20964 53.9052 0.0267002 0.953991 -0.795875 0.566307 -0.560986 0.138968 -3.37565 
193 1.06597 5.33731 52.6041 -1.24922 -1.89855 0.441461 -0.236974 -0.801324 -0.410819 -3.52779 
194 3.38747 4.26008 52.6041 -1.41016 -1.71357 0.38981 -0.390655 -0.639441 0.587328 -3.52746 
195 -0.866323 4.2769 53.8949 -0.050867 -0.206143 -1.18049 0.0793793 -1.26166 1.02744 -3.38132 
196 1.3298 4.1174 -56.3442 5.06942 2.90558 1.60242 -1.25473 -0.273891 0.110265 -2.79034 
197 -1.33605 6.40133 55.1665 4.18004 2.79746 1.28995 0.31992 -1.5232 0.197888 -3.26107 
198 1.00488 5.36129 55.1754 5.6421 6.63186 2.70775 0.36987 -0.636457 -0.0326068 -3.15047 
199 1.98371 6.26223 -55.1334 6.93989 9.11553 2.92918 0.134186 -0.847908 -0.52566 -3.02309 
200 3.34328 4.30996 55.1754 5.53065 7.35769 2.86912 0.118701 -0.27862 0.562642 -3.15115 
201 2.87095 2.09325 -56.362 4.04253 6.0065 1.88101 -3.16453 0.252648 0.341793 -2.79939 
202 2.84551 2.1252 -53.8874 0.165026 0.763307 -3.02645 -0.982106 -0.732814 -0.162364 -3.51266 
203 3.53831 4.21674 -55.1525 6.03166 6.27392 1.75936 0.302437 -1.2195 -0.0444713 -3.1433 
204 5.07312 2.13635 -55.1525 6.04997 7.03887 2.00315 0.446064 -0.528118 0.080539 -3.14511 
205 1.29262 4.16451 -53.8815 0.86127 -0.348222 -3.67504 -0.408872 -0.573881 0.839001 -3.51412 
206 1.24176 4.17585 -51.3147 -1.2868 -1.91099 -0.373798 -0.214931 -0.880573 0.220146 -3.53903 
207 1.90264 6.26187 -52.5941 -0.917828 -1.45679 -0.572999 -0.184177 -1.16803 0.820002 -3.52792 
208 3.4607 4.22944 -52.6036 -0.748885 -0.925835 0.0954314 -0.677536 -0.49607 0.191365 -3.53019 
209 1.82403 6.27282 -50.0101 -1.64264 -2.32548 -0.26242 -0.200419 -1.2816 0.432955 -3.53673 
210 5.01221 2.17771 -52.6036 -1.34185 -0.348574 0.0546069 -0.502577 0.019198 0.991504 -3.52952 
211 2.80522 2.14769 -51.32 -1.10369 -0.946872 -0.112749 -0.278084 -0.333023 0.261782 -3.53414 
212 2.77226 2.17461 -48.7405 -1.96868 -1.8367 -0.545696 -0.291639 -0.223497 0.337979 -3.53087 
213 3.40036 4.25787 -50.02 -1.43142 -1.65389 -0.139037 -0.408393 -0.708748 0.286338 -3.53497 
214 4.971 2.23184 -50.02 -1.84419 -1.27398 -0.113782 -0.296377 0.0209701 0.835955 -3.535 
215 1.18965 4.18043 -48.7355 -2.17805 -2.7557 -0.785923 -0.180429 -0.850037 0.284036 -3.5364 
216 1.13972 4.1865 -46.154 -2.63716 -3.19133 -0.974027 -0.165242 -0.833607 0.402051 -3.53604 
217 1.74858 6.27864 -47.4305 -2.10039 -2.83295 -0.673511 -0.213747 -1.24116 0.546274 -3.53588 
218 3.345 4.28749 -47.4411 -1.8981 -2.20792 -0.561652 -0.301244 -0.639249 0.335908 -3.53414 
219 1.67464 6.29042 -44.8494 -2.46979 -3.19111 -0.861943 -0.201107 -1.24471 0.604592 -3.53533 
220 4.93481 2.28445 -47.4403 -2.32183 -1.78826 -0.540899 -0.212379 0.105887 0.864929 -3.53419 
221 2.74198 2.20189 -46.1593 -2.36459 -2.26789 -0.738951 -0.23203 -0.161335 0.392622 -3.53074 
222 2.7136 2.23052 -43.5775 -2.67695 -2.59075 -0.950447 -0.216215 -0.149928 0.412773 -3.53037 
223 3.29148 4.31967 -44.8604 -2.23393 -2.57312 -0.716938 -0.260901 -0.625194 0.37121 -3.53392 
224 4.90189 2.3375 -44.8595 -2.6571 -2.14343 -0.72215 -0.178358 0.143326 0.896118 -3.53392 
225 1.09055 4.19503 -43.572 -2.9758 -3.51162 -1.20202 -0.153059 -0.841492 0.427291 -3.53553 
226 1.04129 4.20426 -40.9909 -3.23549 -3.78687 -1.44328 -0.151128 -0.854484 0.433659 -3.53509 
227 1.6009 6.3039 -42.2683 -2.75205 -3.49759 -1.0891 -0.200752 -1.26244 0.620008 -3.53483 
228 3.23889 4.35331 -42.2794 -2.50737 -2.86964 -0.916987 -0.244092 -0.627537 0.388746 -3.5336 
229 1.52671 6.31806 -39.6884 -2.96268 -3.76485 -1.33303 -0.207886 -1.2815 0.623465 -3.53438 
230 4.87051 2.39143 -42.2785 -2.9404 -2.42587 -0.927862 -0.167836 0.154989 0.921059 -3.5336 
231 2.68576 2.25987 -40.9964 -2.93293 -2.85217 -1.18087 -0.213793 -0.147924 0.426539 -3.53006 
232 2.65801 2.28981 -38.4167 -3.14647 -3.06708 -1.42334 -0.218832 -0.147102 0.43788 -3.52981 
233 3.18653 4.38799 -39.6994 -2.72463 -3.1097 -1.14096 -0.238866 -0.63242 0.399009 -3.53333 
234 4.83971 2.44632 -39.6985 -3.17727 -2.64387 -1.15176 -0.168613 0.159719 0.942558 -3.53333 
235 0.991642 4.21375 -38.4114 -3.43494 -4.03134 -1.69446 -0.156418 -0.866779 0.434581 -3.53468 
236 0.941568 4.22345 -35.8343 -3.57589 -4.24179 -1.95027 -0.166066 -0.87662 0.429089 -3.53431 
237 1.45188 6.33271 -37.1108 -3.10485 -3.9885 -1.58531 -0.218778 -1.29724 0.618206 -3.53398 
238 3.13415 4.42361 -37.1215 -2.88611 -3.29337 -1.37507 -0.24238 -0.638719 0.401125 -3.53314 
239 1.37648 6.34788 -34.5362 -3.17957 -4.1575 -1.83231 -0.229174 -1.30925 0.599241 -3.53367 
240 4.8092 2.50218 -37.1205 -3.36479 -2.80034 -1.38456 -0.178963 0.159378 0.956279 -3.53314 
241 2.63026 2.3203 -35.8394 -3.31658 -3.23593 -1.67007 -0.230766 -0.148902 0.44356 -3.52963 
242 2.60249 2.35127 -33.2649 -3.43872 -3.35664 -1.9107 -0.249377 -0.156691 0.439726 -3.52955 
243 3.08168 4.46006 -34.5463 -2.98971 -3.4194 -1.60566 -0.253952 -0.649728 0.389853 -3.53306 
244 4.77891 2.55888 -34.5453 -3.4977 -2.89736 -1.61421 -0.199022 0.148991 0.957203 -3.53306 
245 0.891135 4.23337 -33.2603 -3.65782 -4.40931 -2.19931 -0.176705 -0.884281 0.413095 -3.53401 
246 0.84042 4.24341 -30.6897 -3.68826 -4.53115 -2.428 -0.18533 -0.890617 0.385529 -3.5338 
247 1.30063 6.36342 -31.9652 -3.19692 -4.26989 -2.05779 -0.236028 -1.3186 0.564226 -3.53349 
248 3.02901 4.49704 -31.9745 -3.04024 -3.49504 -1.82006 -0.271896 -0.66644 0.364025 -3.53307 
249 1.2244 6.37898 -29.3978 -3.17484 -4.33542 -2.2507 -0.238311 -1.32593 0.516701 -3.53342 
250 4.74867 2.61615 -31.9733 -3.5785 -2.94439 -1.82849 -0.227234 0.126127 0.945224 -3.53306 
251 2.57461 2.38252 -30.6938 -3.51436 -3.43348 -2.13396 -0.272884 -0.171128 0.42616 -3.52954 
252 2.54648 2.41384 -28.1259 -3.55207 -3.47696 -2.33143 -0.298361 -0.189855 0.406194 -3.52957 
253 2.97597 4.53415 -29.4059 -3.0502 -3.53436 -2.00997 -0.293226 -0.68647 0.328126 -3.53312 
254 4.7182 2.67365 -29.4046 -3.61766 -2.95676 -2.01877 -0.260222 0.0935667 0.9248 -3.5331 
255 0.78946 4.25338 -28.1224 -3.68194 -4.61323 -2.6267 -0.190162 -0.896092 0.349549 -3.53368 
256 0.738268 4.26304 -25.5582 -3.65404 -4.66529 -2.79185 -0.190667 -0.900766 0.309783 -3.53362 
257 1.14779 6.39419 -26.8335 -3.13086 -4.36785 -2.40773 -0.236208 -1.3313 0.46278 -3.53342 
258 2.92241 4.571 -26.8405 -3.03378 -3.5511 -2.17204 -0.314708 -0.706816 0.288138 -3.53318 
259 1.07083 6.40872 -24.272 -3.07822 -4.37956 -2.53118 -0.230233 -1.33498 0.40789 -3.53347 
260 4.6872 2.73112 -26.8391 -3.62758 -2.94916 -2.18107 -0.294364 0.0562242 0.900926 -3.53316 
261 2.51797 2.44502 -25.561 -3.56288 -3.49871 -2.49916 -0.323072 -0.209902 0.383791 -3.52962 
262 2.48898 2.47592 -22.9988 -3.55672 -3.50812 -2.63708 -0.345193 -0.229125 0.361796 -3.52967 
263 2.86822 4.60731 -24.2778 -3.00284 -3.55553 -2.3064 -0.333821 -0.725407 0.248579 -3.53323 
264 4.65545 2.78834 -24.2763 -3.61904 -2.93254 -2.3151 -0.327002 0.0183977 0.877163 -3.53321 
265 0.686849 4.27222 -22.9967 -3.61635 -4.6968 -2.92466 -0.187103 -0.904658 0.270056 -3.5336 
266 0.635211 4.28079 -20.4373 -3.57663 -4.71527 -3.0289 -0.180093 -0.90792 0.2327 -3.5336 
267 0.993535 6.42235 -21.7127 -3.02541 -4.37976 -2.62595 -0.220966 -1.3375 0.355546 -3.53353 
268 2.81334 4.64292 -21.7174 -2.96582 -3.55433 -2.41518 -0.349136 -0.741313 0.21194 -3.53327 
269 0.915922 6.43496 -19.1552 -2.97718 -4.37457 -2.69755 -0.20903 -1.33949 0.30746 -3.53359 
270 4.6228 2.8452 -21.7159 -3.60006 -2.91396 -2.423 -0.356676 -0.0171951 0.855495 -3.53325 
271 2.45946 2.50645 -20.4388 -3.54107 -3.51164 -2.74762 -0.363857 -0.246431 0.341711 -3.52971 
272 2.42941 2.53657 -17.8807 -3.52101 -3.51319 -2.83439 -0.378891 -0.261522 0.324068 -3.52975 
273 2.75778 4.67773 -19.159 -2.92803 -3.55151 -2.50152 -0.36018 -0.754433 0.179169 -3.5333 
274 4.58921 2.90162 -19.1573 -3.57612 -2.89744 -2.50811 -0.38284 -0.0493111 0.836749 -3.53328 
275 0.583368 4.28871 -17.8797 -3.53938 -4.72599 -3.10921 -0.170368 -0.910819 0.198753 -3.5336 
276 0.531332 4.29592 -15.3234 -3.50678 -4.7324 -3.17011 -0.158639 -0.913665 0.168407 -3.53361 
277 0.838012 6.44649 -16.599 -2.9356 -4.36768 -2.75096 -0.195076 -1.34151 0.264093 -3.53365 
278 2.70155 4.71172 -16.602 -2.89248 -3.54924 -2.56886 -0.367114 -0.765139 0.150285 -3.53332 
279 0.759816 6.45691 -14.0439 -2.90098 -4.36111 -2.79032 -0.179733 -1.34399 0.225194 -3.53369 
280 4.55466 2.95757 -16.6004 -3.55064 -2.88491 -2.5741 -0.405513 -0.0777296 0.821026 -3.53331 
281 2.39883 2.56626 -15.3241 -3.4997 -3.5149 -2.90128 -0.390543 -0.274577 0.308832 -3.52977 
282 2.36775 2.59552 -12.7685 -3.47887 -3.51773 -2.95197 -0.399271 -0.285988 0.295691 -3.52979 
283 2.64467 4.74487 -14.0462 -2.86053 -3.54848 -2.62052 -0.370449 -0.773981 0.124841 -3.53333 
284 4.51918 3.01303 -14.0446 -3.52556 -2.87697 -2.62446 -0.42502 -0.102806 0.808035 -3.53332 
285 0.479113 4.30242 -12.7682 -3.47946 -4.73654 -3.21555 -0.145532 -0.916721 0.141389 -3.53362 
286 0.426712 4.30821 -10.2137 -3.45706 -4.73957 -3.24879 -0.131575 -0.920129 0.117227 -3.53362 
287 0.681339 6.46623 -11.4897 -2.87253 -4.3558 -2.81889 -0.163553 -1.34709 0.190175 -3.53373 
288 2.58717 4.77719 -11.4914 -2.83241 -3.54949 -2.65947 -0.370833 -0.781487 0.102215 -3.53334 
289 0.602583 6.47447 -8.93596 -2.8488 -4.352 -2.83913 -0.146966 -1.35073 0.158338 -3.53375 
290 4.48277 3.06801 -11.4897 -3.5018 -2.87344 -2.66219 -0.441823 -0.125134 0.797303 -3.53333 
291 2.33616 2.62435 -10.2138 -3.45931 -3.52192 -2.9896 -0.405615 -0.296176 0.28424 -3.5298 
292 2.3041 2.65275 -7.65973 -3.44111 -3.52731 -3.01677 -0.410117 -0.305471 0.27408 -3.52981 
293 2.52908 4.80869 -8.9372 -2.80769 -3.55212 -2.6882 -0.368919 -0.788036 0.0817772 -3.53334 
294 4.44549 3.1225 -8.93556 -3.4796 -2.87373 -2.68976 -0.456412 -0.145327 0.788299 -3.53334 
295 0.37413 4.3133 -7.65985 -3.43862 -4.74199 -3.27236 -0.117192 -0.923823 0.095378 -3.53362 
296 0.32137 4.31772 -5.10638 -3.42299 -4.74398 -3.28814 -0.102694 -0.92749 0.075282 -3.53363 
297 0.523554 6.48165 -6.38269 -2.82821 -4.34961 -2.85281 -0.13024 -1.3545 0.128971 -3.53377 
298 2.4704 4.8394 -6.38352 -2.78558 -3.55607 -2.70866 -0.36526 -0.793796 0.0629734 -3.53334 
299 0.444275 6.48778 -3.82972 -2.80946 -4.34836 -2.86112 -0.113462 -1.35779 0.101387 -3.53378 
300 4.40733 3.1765 -6.3819 -3.45878 -2.87717 -2.70906 -0.469218 -0.163898 0.780517 -3.53334 
301 2.27157 2.68074 -5.1061 -3.42405 -3.53362 -3.03543 -0.413243 -0.314051 0.264858 -3.52982 
302 2.23858 2.70831 -2.55276 -3.40774 -3.54061 -3.04694 -0.415311 -0.321948 0.256285 -3.52982 
303 2.41119 4.86932 -3.83019 -2.76526 -3.56106 -2.72222 -0.360224 -0.798728 0.0453525 -3.53334 
304 4.36835 3.23 -3.82857 -3.43902 -2.88318 -2.72143 -0.480534 -0.181209 0.773506 -3.53335 
305 0.268445 4.32146 -2.5532 -3.40917 -4.74553 -3.29733 -0.0882533 -0.930604 0.0563766 -3.53363 
306 0.364794 6.49289 -1.27694 -2.79205 -4.34803 -2.86471 -0.0965391 -1.35989 0.0749304 -3.5338 
307 2.35146 4.89846 -1.27707 -2.7462 -3.56702 -2.72973 -0.353929 -0.802656 0.0285581 -3.53335 
308 4.32855 3.28299 -1.27545 -3.42005 -2.89144 -2.72772 -0.490452 -0.197494 0.766901 -3.53335 
309 2.43635 7.09067 -0.000766017 -2.22107 -3.36364 -2.40271 -0.317758 -1.2094 -0.188545 -3.53289 
310 0.434609 8.66783 -0.000972336 -2.25213 -4.02056 -2.49704 -0.100178 -1.74679 0.0828321 -3.53355 