ITEM: TIMESTEP
1061
ITEM: NUMBER OF ATOMS
37664
ITEM: BOX BOUNDS ff ff ff
-100 100
-100 100
-156.15 156.15
ITEM: ATOMS id x y z v_peratom_sxx v_peratom_syy v_peratom_szz v_peratom_sxy v_peratom_sxz v_peratom_syz c_atomPE 
1 -0.00365903 -0.00218536 0.00105752 -5.17912 -5.17185 -9.53877 0.000208241 -0.011424 -0.0279329 -3.51527 
2 -0.00396125 -0.00207612 2.55431 -5.17838 -5.17104 -9.53776 -0.000199778 -0.0135691 -0.0267414 -3.51527 
3 -0.0042903 -0.00191255 5.10762 -5.17318 -5.16612 -9.52703 -0.000848338 -0.0138894 -0.0254516 -3.51532 
4 -0.00463249 -0.00169881 7.66113 -5.16269 -5.15649 -9.50511 -0.00172958 -0.0118626 -0.0242167 -3.51541 
5 -0.00496352 -0.00144883 10.215 -5.14596 -5.14128 -9.46988 -0.00275957 -0.00735521 -0.0230536 -3.51557 
6 -0.00525148 -0.00118249 12.7694 -5.12187 -5.11934 -9.41869 -0.00379224 -0.000710383 -0.0218318 -3.5158 
7 -0.00546275 -0.000919959 15.3246 -5.0891 -5.08909 -9.34834 -0.00466489 0.00731366 -0.020345 -3.51612 
8 -0.00556903 -0.00067692 17.8809 -5.04578 -5.04837 -9.25496 -0.00525001 0.0157351 -0.0184204 -3.51655 
9 -0.00555282 -0.000462155 20.4386 -4.98922 -4.99415 -9.13383 -0.00548802 0.0235818 -0.0160048 -3.5171 
10 -0.00541006 -0.000277971 22.998 -4.91554 -4.92231 -8.9795 -0.00539247 0.030081 -0.0131974 -3.5178 
11 -0.00514955 -0.000122491 25.5597 -4.81947 -4.82746 -8.78634 -0.005034 0.0347662 -0.0102294 -3.51866 
12 -0.00478979 7.42358e-06 28.124 -4.69464 -4.7032 -8.55021 -0.00451327 0.0374975 -0.00740619 -3.51969 
13 -0.00435445 0.000113848 30.6914 -4.53508 -4.54366 -8.27154 -0.00393238 0.0384183 -0.00502692 -3.52089 
14 -0.00386743 0.000196859 33.262 -4.33906 -4.34725 -7.9591 -0.00337222 0.0378745 -0.0033046 -3.5222 
15 -0.0033487 0.000254971 35.8358 -4.11431 -4.12186 -7.63039 -0.00288097 0.0363208 -0.00231557 -3.52347 
16 -0.00281188 0.000286039 38.4125 -3.87682 -3.88359 -7.30379 -0.00247415 0.0342234 -0.00200602 -3.52458 
17 -0.00226308 0.000287607 40.9917 -3.63817 -3.64411 -6.98577 -0.00214075 0.0319895 -0.00225215 -3.52548 
18 -0.00169852 0.000256756 43.5731 -3.39932 -3.40441 -6.66356 -0.00184724 0.0300091 -0.00291316 -3.5262 
19 -0.00110037 0.000189712 46.1569 -3.13508 -3.1392 -6.30041 -0.00152473 0.0286588 -0.0038385 -3.52695 
20 -0.000439432 7.85636e-05 48.7435 -2.75184 -2.75405 -5.86099 -0.000846693 0.0277612 -0.00497748 -3.52782 
21 5.95933e-07 -4.11185e-08 51.3317 -1.92308 -1.92292 -4.91978 7.87471e-05 -0.00140317 0.000245464 -3.53203 
22 4.01304e-07 -1.42881e-06 53.9138 -0.851897 -0.851906 -8.91777 9.1823e-07 -2.82367e-05 -7.13312e-05 -3.48169 
23 8.71386e-07 -1.98378e-06 56.3885 1.68559 1.6856 1.87689 -1.5202e-05 2.36827e-05 -3.33572e-07 -2.55581 
24 -1.23087e-07 -1.12453e-06 -53.8876 -2.60697 -2.60699 -6.54961 -1.84178e-05 1.07715e-05 -3.235e-05 -3.40183 
25 1.02659e-07 -1.55837e-06 -51.3239 -2.07911 -2.07928 -5.57925 -0.000268162 0.000683274 0.0014378 -3.52873 
26 -0.000174647 -0.000409716 -48.7462 -2.69402 -2.69149 -6.14698 0.00353408 -0.0110755 -0.0255875 -3.5264 
27 -0.000406558 -0.000987316 -46.1646 -3.02108 -3.01656 -6.34692 0.00625649 -0.00927482 -0.0239528 -3.52678 
28 -0.000576573 -0.00142837 -43.5822 -3.3027 -3.2964 -6.60729 0.00688011 -0.00601918 -0.0227653 -3.52635 
29 -0.000688584 -0.00176634 -41.0007 -3.55835 -3.55008 -6.89575 0.00682275 -0.00244504 -0.0219914 -3.52575 
30 -0.000762129 -0.00201999 -38.4209 -3.8089 -3.79863 -7.2047 0.00630227 0.00115797 -0.0214661 -3.52491 
31 -0.00081896 -0.00220057 -35.8434 -4.05559 -4.04355 -7.5301 0.00542951 0.00448271 -0.0210993 -3.52385 
32 -0.000881192 -0.00231779 -33.2685 -4.28899 -4.27564 -7.86077 0.00433118 0.00718972 -0.0209034 -3.52261 
33 -0.000968477 -0.00238264 -30.6968 -4.49601 -4.48196 -8.17905 0.00316831 0.00901032 -0.0209457 -3.52132 
34 -0.00109435 -0.00240756 -28.1283 -4.66809 -4.65402 -8.4678 0.00210784 0.00984391 -0.0212937 -3.5201 
35 -0.00126359 -0.00240503 -25.5629 -4.80423 -4.79075 -8.71641 0.00127781 0.00979421 -0.0219678 -3.51901 
36 -0.00147182 -0.00238602 -23.0002 -4.9085 -4.89603 -8.92193 0.000734531 0.00911439 -0.0229231 -3.5181 
37 -0.0017077 -0.00235922 -20.4398 -4.98677 -4.97553 -9.08675 0.000457995 0.00808382 -0.02407 -3.51736 
38 -0.00195686 -0.00233129 -17.8814 -5.04485 -5.03485 -9.21593 0.000375422 0.00688027 -0.0253067 -3.51677 
39 -0.00220635 -0.0023074 -15.3244 -5.08762 -5.07873 -9.31529 0.000398533 0.00550982 -0.0265373 -3.51632 
40 -0.00244807 -0.00229111 -12.7687 -5.11892 -5.1109 -9.39036 0.000455659 0.00382646 -0.0276655 -3.51597 
41 -0.00268038 -0.00228325 -10.2138 -5.14161 -5.13421 -9.44594 0.000505301 0.00163062 -0.0285777 -3.51571 
42 -0.00290787 -0.00228015 -7.65951 -5.15781 -5.15074 -9.48598 0.000529084 -0.00119731 -0.0291426 -3.51553 
43 -0.00313968 -0.00227258 -5.10573 -5.16895 -5.16197 -9.51355 0.000512108 -0.00458022 -0.0292412 -3.5154 
44 -0.00338682 -0.00224636 -2.55225 -5.17593 -5.16884 -9.53076 0.000423382 -0.00818273 -0.0288198 -3.51532 
45 0.0924539 2.15789 1.27692 -4.05612 -5.14041 -3.83752 -0.0511683 -0.452036 0.00359325 -3.52907 
46 0.0657822 2.15902 3.83011 -4.05014 -5.13956 -3.8317 -0.0397333 -0.452262 -0.00552901 -3.52908 
47 0.0391085 2.15987 6.38343 -4.04491 -5.13638 -3.81756 -0.0282783 -0.450922 -0.0150576 -3.5291 
48 0.0124838 2.16041 8.93704 -4.04115 -5.13064 -3.79385 -0.0165898 -0.448058 -0.0252588 -3.52913 
49 -0.0140379 2.16063 11.4911 -4.03983 -5.12196 -3.75892 -0.00450927 -0.444043 -0.0363265 -3.52917 
50 -0.0404078 2.1605 14.0458 -4.04186 -5.10962 -3.71068 0.00794863 -0.439459 -0.0484486 -3.52922 
51 -0.0665904 2.16001 16.6015 -4.04772 -5.0924 -3.64652 0.0205346 -0.434919 -0.0618755 -3.52928 
52 -0.0925674 2.15915 19.1584 -4.0571 -5.06836 -3.5631 0.0327752 -0.430909 -0.0769388 -3.52935 
53 -0.118339 2.15792 21.7168 -4.06853 -5.0346 -3.45634 0.0440306 -0.427703 -0.0939767 -3.52943 
54 -0.143918 2.15636 24.2772 -4.07882 -4.98686 -3.32162 0.0535769 -0.425351 -0.11312 -3.52953 
55 -0.169331 2.15449 26.8399 -4.08217 -4.91916 -3.15457 0.0607159 -0.423712 -0.133886 -3.52967 
56 -0.194606 2.15238 29.4055 -4.06914 -4.82378 -2.95271 0.0649521 -0.422501 -0.15462 -3.52986 
57 -0.219766 2.15011 31.9742 -4.02642 -4.69259 -2.71815 0.0662774 -0.421321 -0.172181 -3.53012 
58 -0.244815 2.1478 34.5463 -3.94018 -4.5212 -2.45987 0.065484 -0.419681 -0.183074 -3.53047 
59 -0.26973 2.14548 37.1216 -3.80482 -4.31499 -2.1921 0.0641241 -0.417001 -0.187016 -3.53087 
60 -0.294471 2.14307 39.6996 -3.62866 -4.08864 -1.92632 0.0637619 -0.412809 -0.189044 -3.53128 
61 -0.319012 2.1405 42.2798 -3.42358 -3.85289 -1.66283 0.0651106 -0.407201 -0.195255 -3.53164 
62 -0.343391 2.13767 44.8621 -3.19606 -3.6046 -1.39028 0.0674142 -0.400742 -0.212222 -3.53193 
63 -0.367766 2.13483 47.4464 -2.91617 -3.29365 -1.10608 0.067339 -0.395858 -0.231655 -3.53223 
64 -0.392512 2.13371 50.032 -2.4344 -2.80056 -0.495197 0.0605357 -0.414717 -0.20106 -3.53323 
65 -0.418483 2.1304 52.6263 -1.76576 -2.00552 -0.561411 0.0455096 -0.308933 -0.729991 -3.52457 
66 -0.44812 2.14653 55.1778 6.97659 7.73843 2.4309 0.0330141 -0.597323 1.77022 -3.02528 
67 0.649859 2.05055 -55.162 1.38944 0.84238 -0.678385 -0.188253 -0.0991979 1.20761 -3.26036 
68 0.633027 2.08274 -52.6122 -1.11195 -2.21866 -0.45772 -0.37449 -0.489286 -0.16147 -3.53566 
69 0.607028 2.08678 -50.0319 -2.00258 -2.55463 -0.871143 -0.170316 -0.429482 0.081532 -3.53399 
70 0.581323 2.08836 -47.4532 -2.63741 -3.071 -1.20605 -0.127078 -0.403227 0.155529 -3.5329 
71 0.556523 2.09194 -44.8711 -3.05869 -3.4403 -1.36609 -0.106808 -0.397608 0.198942 -3.53225 
72 0.531909 2.09627 -42.2892 -3.35755 -3.7258 -1.59506 -0.0983138 -0.401376 0.210497 -3.53183 
73 0.507185 2.10081 -39.7085 -3.60116 -3.98179 -1.84574 -0.0971581 -0.406781 0.216397 -3.53141 
74 0.482257 2.10544 -37.1298 -3.80337 -4.21982 -2.10943 -0.101588 -0.411742 0.219871 -3.53098 
75 0.457121 2.11015 -34.5537 -3.96105 -4.43484 -2.37899 -0.10996 -0.415882 0.218587 -3.53055 
76 0.431808 2.11495 -31.9806 -4.0699 -4.61704 -2.64232 -0.119949 -0.419507 0.20984 -3.53018 
77 0.406348 2.11978 -29.4107 -4.13328 -4.76121 -2.88572 -0.129027 -0.422909 0.19362 -3.52988 
78 0.380752 2.12454 -26.8441 -4.16158 -4.86947 -3.09914 -0.135336 -0.426128 0.17251 -3.52965 
79 0.355029 2.12913 -24.2805 -4.16671 -4.94816 -3.27832 -0.138061 -0.429074 0.149566 -3.52948 
80 0.329184 2.13347 -21.7193 -4.15858 -5.00451 -3.42382 -0.137208 -0.431685 0.127043 -3.52936 
81 0.303229 2.13752 -19.1602 -4.14418 -5.04474 -3.539 -0.133227 -0.433981 0.106184 -3.52927 
82 0.277176 2.14124 -16.6027 -4.12793 -5.07364 -3.62831 -0.126718 -0.436072 0.0874728 -3.52921 
83 0.251035 2.14463 -14.0466 -4.11235 -5.09462 -3.6963 -0.118271 -0.438129 0.0709435 -3.52916 
84 0.224813 2.14767 -11.4914 -4.09865 -5.11003 -3.74706 -0.108401 -0.440329 0.0564155 -3.52912 
85 0.198509 2.15036 -8.93699 -4.08714 -5.1214 -3.78403 -0.0975548 -0.442781 0.0436291 -3.5291 
86 0.172119 2.15271 -6.3831 -4.07762 -5.1297 -3.80995 -0.0861195 -0.445461 0.0322961 -3.52908 
87 0.145643 2.15474 -3.82956 -4.0696 -5.13549 -3.8268 -0.0744264 -0.448166 0.0220968 -3.52907 
88 0.119083 2.15646 -1.27627 -4.06257 -5.13903 -3.83582 -0.0627298 -0.450518 0.0126651 -3.52906 
89 0.21542 4.32456 -0.000170129 -3.39651 -4.74672 -3.30056 -0.0738774 -0.932292 0.0379875 -3.53364 
90 0.285234 6.49698 1.27574 -2.77684 -4.34873 -2.86386 -0.0791359 -1.36013 0.0489234 -3.53381 
91 2.20518 2.73546 0.000427776 -3.39177 -3.54846 -3.05217 -0.416457 -0.328999 0.248103 -3.52983 
92 2.17136 2.76217 2.55357 -3.37644 -3.55701 -3.05092 -0.416349 -0.335264 0.240209 -3.52983 
93 2.29131 4.92679 1.27597 -2.7285 -3.57428 -2.73151 -0.34615 -0.805249 0.0123163 -3.53335 
94 4.28803 3.33543 1.27761 -3.4019 -2.90211 -2.72841 -0.498811 -0.212834 0.760428 -3.53335 
95 0.162299 4.327 2.5528 -3.38591 -4.74728 -3.29787 -0.0592745 -0.932612 0.0198668 -3.53365 
96 0.109175 4.32879 5.10583 -3.37783 -4.74745 -3.28892 -0.0443296 -0.93114 0.00141604 -3.53366 
97 0.205625 6.50005 3.82843 -2.76496 -4.35021 -2.85843 -0.06121 -1.35884 0.0229526 -3.53382 
98 2.23076 4.95429 3.82901 -2.71284 -3.58268 -2.72734 -0.336667 -0.806774 -0.00368994 -3.53335 
99 0.126108 6.5021 6.38125 -2.75829 -4.35296 -2.84815 -0.042569 -1.35615 -0.00360112 -3.53383 
100 4.24675 3.3873 3.83069 -3.38491 -2.915 -2.72319 -0.505252 -0.227516 0.753891 -3.53336 
101 2.13718 2.78843 5.10681 -3.36183 -3.56671 -3.04302 -0.414743 -0.340672 0.232383 -3.52983 
102 2.10269 2.8142 7.66027 -3.34858 -3.57789 -3.02759 -0.411132 -0.345359 0.224443 -3.52983 
103 2.1699 4.98095 6.38221 -2.70018 -3.59269 -2.71676 -0.32508 -0.807265 -0.0198065 -3.53336 
104 4.20481 3.43856 6.38393 -3.36959 -2.93062 -2.71173 -0.509363 -0.241726 0.747112 -3.53336 
105 0.0561312 4.32992 7.65907 -3.37381 -4.7474 -3.27302 -0.0287964 -0.928104 -0.0177725 -3.53368 
106 0.00324653 4.33037 10.2127 -3.37555 -4.74721 -3.24922 -0.012558 -0.924088 -0.0380831 -3.53369 
107 0.0467854 6.50311 8.93433 -2.75884 -4.3573 -2.83252 -0.0232326 -1.35279 -0.0312763 -3.53383 
108 2.10881 5.00672 8.93569 -2.69193 -3.60451 -2.69893 -0.311062 -0.807178 -0.036491 -3.53336 
109 -0.032263 6.50304 11.4878 -2.76821 -4.3635 -2.81081 -0.00341325 -1.34962 -0.0606602 -3.53382 
110 4.16225 3.48917 8.93747 -3.35678 -2.94931 -2.69319 -0.510659 -0.255841 0.739905 -3.53336 
111 2.06795 2.83945 10.2141 -3.33761 -3.59072 -3.00337 -0.405013 -0.349666 0.216145 -3.52983 
112 2.03299 2.86416 12.7685 -3.32987 -3.60506 -2.96866 -0.396006 -0.354141 0.20714 -3.52982 
113 2.04756 5.03158 11.4896 -2.68951 -3.6181 -2.67273 -0.294453 -0.807187 -0.0543483 -3.53336 
114 4.11911 3.53909 11.4914 -3.34738 -2.97127 -2.66637 -0.508713 -0.270409 0.732008 -3.53336 
115 -0.0494143 4.33012 12.7668 -3.38457 -4.7468 -3.21624 0.00428778 -0.919828 -0.059938 -3.5337 
116 -0.101809 4.32915 15.3217 -3.4018 -4.74572 -3.17228 0.0214201 -0.915981 -0.0838477 -3.53371 
117 -0.110989 6.50189 14.0419 -2.78732 -4.3716 -2.78189 0.016524 -1.34733 -0.0924281 -3.5338 
118 1.98618 5.05549 14.0442 -2.69401 -3.63319 -2.63669 -0.275261 -0.808074 -0.0741319 -3.53336 
119 -0.189374 6.49964 16.5968 -2.81641 -4.38129 -2.74401 0.0361359 -1.34636 -0.127348 -3.53376 
120 4.07542 3.5883 14.0461 -3.34217 -2.99652 -2.62967 -0.503195 -0.28614 0.723022 -3.53336 
121 1.99785 2.88831 15.3237 -3.32607 -3.62044 -2.92135 -0.383903 -0.35947 0.196946 -3.52981 
122 1.96254 2.91186 17.8799 -3.32642 -3.63589 -2.85888 -0.368644 -0.366387 0.184968 -3.52979 
123 1.9247 5.07843 16.5996 -2.70603 -3.64916 -2.58894 -0.253612 -0.810598 -0.096706 -3.53335 
124 4.03119 3.63677 16.6015 -3.34159 -3.02485 -2.58111 -0.493855 -0.303854 0.712382 -3.53335 
125 -0.15392 4.32744 17.8776 -3.42745 -4.74299 -3.11491 0.0383482 -0.912963 -0.11041 -3.5337 
126 -0.205748 4.32501 20.4348 -3.4609 -4.7369 -3.04083 0.0544822 -0.910892 -0.140229 -3.5337 
127 -0.267421 6.49626 19.1527 -2.85514 -4.39172 -2.69461 0.054974 -1.34673 -0.166231 -3.53371 
128 1.86311 5.10036 19.1561 -2.72561 -3.665 -2.52702 -0.229678 -0.815417 -0.122965 -3.53334 
129 -0.345142 6.49178 21.7099 -2.90256 -4.40123 -2.63015 0.0726375 -1.34815 -0.209779 -3.53364 
130 3.98644 3.68445 19.158 -3.3456 -3.05566 -2.51824 -0.480502 -0.324414 0.699368 -3.53334 
131 1.92707 2.93481 20.4374 -3.33042 -3.64988 -2.77813 -0.350274 -0.375566 0.170551 -3.52976 
132 1.89143 2.95715 22.9967 -3.3364 -3.65996 -2.67548 -0.32894 -0.387494 0.153126 -3.52973 
133 1.80141 5.12127 21.7141 -2.75207 -3.6791 -2.44791 -0.20366 -0.823035 -0.153688 -3.53331 
134 3.94114 3.73132 21.716 -3.3535 -3.08783 -2.43817 -0.463017 -0.348611 0.683166 -3.53332 
135 -0.257309 4.32187 22.9936 -3.50041 -4.72458 -2.94584 0.0691869 -0.909617 -0.173711 -3.53369 
136 -0.308629 4.31806 25.5544 -3.54251 -4.70151 -2.82502 0.0818048 -0.908811 -0.21067 -3.5337 
137 -0.422553 6.48623 24.2687 -2.95682 -4.40684 -2.54589 0.0887847 -1.35 -0.25828 -3.53357 
138 1.73959 5.14117 24.2738 -2.78371 -3.68891 -2.34806 -0.175849 -0.833743 -0.189265 -3.53328 
139 -0.499669 6.47969 26.8296 -3.0144 -4.40354 -2.43607 0.103087 -1.35155 -0.311057 -3.53351 
140 3.8953 3.77736 24.2756 -3.36353 -3.11928 -2.33765 -0.441453 -0.37697 0.663042 -3.53329 
141 1.85562 2.97889 25.558 -3.34102 -3.66228 -2.54711 -0.304978 -0.402255 0.132482 -3.52968 
142 1.81965 3.00008 28.1218 -3.3383 -3.65083 -2.3897 -0.279137 -0.419142 0.10928 -3.52962 
143 1.67764 5.16008 26.8357 -2.81713 -3.69042 -2.22379 -0.146815 -0.847476 -0.229215 -3.53323 
144 3.84894 3.82258 26.8375 -3.37229 -3.14632 -2.21328 -0.416278 -0.409358 0.638695 -3.53324 
145 -0.359736 4.31368 28.1178 -3.58084 -4.66086 -2.67342 0.0916698 -0.908091 -0.249703 -3.53373 
146 -0.410658 4.30887 30.684 -3.60451 -4.59309 -2.48771 0.0981922 -0.90707 -0.28749 -3.53381 
147 -0.576503 6.47232 29.393 -3.06876 -4.38335 -2.29449 0.115112 -1.35213 -0.365665 -3.53348 
148 1.61558 5.17813 29.4002 -2.84606 -3.67748 -2.07195 -0.117733 -0.863429 -0.271411 -3.53318 
149 -0.653066 6.4644 31.9595 -3.10842 -4.33439 -2.11637 0.124197 -1.35122 -0.417144 -3.5335 
150 3.80215 3.86703 29.4019 -3.37367 -3.16265 -2.06199 -0.388722 -0.444296 0.610885 -3.53318 
151 1.78359 3.02083 30.6886 -3.31849 -3.61682 -2.20173 -0.252898 -0.436101 0.0857793 -3.52957 
152 1.74755 3.0413 33.2587 -3.26793 -3.54908 -1.98536 -0.228639 -0.449472 0.0662283 -3.52956 
153 1.55349 5.19554 31.9678 -2.85967 -3.64107 -1.89103 -0.0907075 -0.87937 -0.311221 -3.53312 
154 3.75509 3.91086 31.9693 -3.35747 -3.15825 -1.88191 -0.361086 -0.478126 0.582296 -3.53311 
155 -0.461407 4.30387 33.2536 -3.59736 -4.4868 -2.26904 0.101137 -0.905214 -0.318838 -3.53397 
156 -0.511957 4.29887 35.8266 -3.5413 -4.33307 -2.02612 0.101091 -0.901557 -0.339165 -3.53423 
157 -0.729354 6.45633 34.5294 -3.11545 -4.24114 -1.902 0.129533 -1.34828 -0.458394 -3.53363 
158 1.49151 5.21266 34.5386 -2.84151 -3.5691 -1.68277 -0.0686736 -0.890982 -0.34158 -3.53309 
159 -0.805307 6.44846 37.103 -3.06832 -4.08888 -1.66157 0.130834 -1.34193 -0.483685 -3.53389 
160 3.70806 3.95431 34.54 -3.30828 -3.11911 -1.67424 -0.336558 -0.504919 0.557932 -3.53308 
161 1.7117 3.06171 35.832 -3.17238 -3.43755 -1.74786 -0.209023 -0.455281 0.0552075 -3.52962 
162 1.6762 3.08217 38.4085 -3.02606 -3.28042 -1.50001 -0.195159 -0.453037 0.0524025 -3.52978 
163 1.42989 5.22988 37.1129 -2.77239 -3.44881 -1.4541 -0.0542921 -0.892901 -0.356472 -3.53314 
164 3.66142 3.99766 37.1141 -3.20777 -3.03089 -1.44566 -0.317934 -0.519176 0.543 -3.53313 
165 -0.562231 4.29395 38.4028 -3.42723 -4.13423 -1.77418 0.0997417 -0.894842 -0.349945 -3.53458 
166 -0.61214 4.28895 40.9816 -3.26255 -3.90635 -1.52567 0.0993334 -0.884462 -0.360123 -3.53492 
167 -0.8808 6.44091 39.6798 -2.95522 -3.87721 -1.41505 0.129371 -1.33035 -0.496053 -3.53425 
168 1.36886 5.2474 39.6902 -2.64161 -3.27552 -1.21689 -0.047927 -0.88376 -0.35908 -3.53331 
169 -0.955727 6.43339 42.259 -2.78445 -3.62631 -1.1803 0.127879 -1.31346 -0.508217 -3.53461 
170 3.61543 4.04107 39.6913 -3.04554 -2.88855 -1.20857 -0.30561 -0.522021 0.536155 -3.5333 
171 1.64104 3.1026 40.9876 -2.83725 -3.08662 -1.2496 -0.185355 -0.447905 0.0498729 -3.53 
172 1.60614 3.12286 43.5687 -2.6159 -2.8643 -0.994326 -0.177078 -0.446363 0.039382 -3.53027 
173 1.30846 5.26508 42.2698 -2.45553 -3.05843 -0.981302 -0.046741 -0.86998 -0.363753 -3.53355 
174 3.57001 4.08445 42.2709 -2.82896 -2.70056 -0.974752 -0.297395 -0.523197 0.526577 -3.53354 
175 -0.66167 4.28367 43.5624 -3.05842 -3.65995 -1.28019 0.101048 -0.871214 -0.378034 -3.53523 
176 -0.710989 4.2781 46.1447 -2.82683 -3.39336 -1.01801 0.104122 -0.857279 -0.408949 -3.53549 
177 -1.03015 6.42569 44.8395 -2.56312 -3.34337 -0.964251 0.127787 -1.29351 -0.525348 -3.53495 
178 1.24856 5.28276 44.851 -2.22144 -2.80253 -0.748909 -0.0489667 -0.859986 -0.381925 -3.53386 
179 -1.10443 6.41816 47.4204 -2.29849 -3.01768 -0.779325 0.130003 -1.27513 -0.537463 -3.53528 
180 3.52498 4.12774 44.852 -2.56336 -2.47449 -0.74999 -0.290632 -0.531567 0.505754 -3.53383 
181 1.57129 3.14294 46.1516 -2.36657 -2.61629 -0.716717 -0.169943 -0.455908 0.0127539 -3.53054 
182 1.53636 3.16327 48.7364 -2.0902 -2.361 -0.345991 -0.182727 -0.478775 -0.0257213 -3.53015 
183 1.1887 5.30045 47.4331 -1.94588 -2.50562 -0.518023 -0.0628588 -0.866557 -0.426433 -3.53411 
184 3.48005 4.171 47.4338 -2.24255 -2.22062 -0.541904 -0.285313 -0.557908 0.462421 -3.53403 
185 -0.760608 4.27328 48.7285 -2.6041 -3.07517 -0.672109 0.097461 -0.849714 -0.413027 -3.53515 
186 -0.811621 4.26877 51.3169 -1.98848 -2.35117 0.310476 0.0838844 -0.841704 -0.653448 -3.53805 
187 -1.17889 6.41384 50.0002 -2.05973 -2.54266 -0.336635 0.0873632 -1.28006 -0.616632 -3.53572 
188 1.12775 5.31799 50.0156 -1.56907 -2.0788 -0.0206231 -0.110966 -0.945827 -0.595048 -3.53485 
189 -1.25707 6.40546 52.5877 -1.61235 -2.48689 0.643292 0.175757 -1.31617 -0.613151 -3.53282 
190 3.43505 4.21346 50.0156 -1.75823 -1.85271 -0.0377469 -0.309217 -0.668226 0.314387 -3.53491 
191 1.50027 3.18358 51.3264 -1.43157 -1.70133 0.65864 -0.172625 -0.54836 -0.133367 -3.53273 
192 1.46587 3.20964 53.9052 0.0267056 0.953997 -0.795855 0.56631 -0.56098 0.138977 -3.37565 
193 1.06597 5.33731 52.6041 -1.24921 -1.89854 0.441481 -0.236968 -0.801329 -0.410832 -3.52779 
194 3.38747 4.26008 52.6041 -1.41016 -1.71355 0.38983 -0.390659 -0.63945 0.587313 -3.52746 
195 -0.866323 4.2769 53.8949 -0.0508728 -0.206132 -1.18049 0.0793765 -1.26166 1.02744 -3.38132 
196 1.3298 4.1174 -56.3442 5.06942 2.90559 1.60242 -1.25473 -0.273892 0.110264 -2.79034 
197 -1.33605 6.40133 55.1665 4.18006 2.79745 1.28995 0.319923 -1.5232 0.197876 -3.26107 
198 1.00488 5.36129 55.1754 5.64207 6.63186 2.70774 0.369859 -0.63646 -0.0326215 -3.15047 
199 1.98371 6.26223 -55.1334 6.93988 9.11553 2.92916 0.134188 -0.847907 -0.525656 -3.02309 
200 3.34328 4.30996 55.1754 5.53064 7.35767 2.86911 0.118705 -0.278628 0.562633 -3.15115 
201 2.87095 2.09325 -56.362 4.04253 6.0065 1.881 -3.16453 0.252643 0.341788 -2.79939 
202 2.84551 2.1252 -53.8874 0.165011 0.763297 -3.02646 -0.982111 -0.732816 -0.162366 -3.51266 
203 3.53831 4.21674 -55.1525 6.03166 6.27391 1.75937 0.302437 -1.21951 -0.0444718 -3.1433 
204 5.07312 2.13635 -55.1525 6.04997 7.03887 2.00316 0.446065 -0.52812 0.0805359 -3.14511 
205 1.29262 4.16451 -53.8815 0.86127 -0.348243 -3.67504 -0.40888 -0.573881 0.839002 -3.51412 
206 1.24176 4.17585 -51.3147 -1.28677 -1.91096 -0.373588 -0.214933 -0.880569 0.220131 -3.53903 
207 1.90264 6.26187 -52.5941 -0.917835 -1.45681 -0.573033 -0.184181 -1.16804 0.819995 -3.52792 
208 3.4607 4.22944 -52.6036 -0.748867 -0.925829 0.0954598 -0.677537 -0.496072 0.191364 -3.53019 
209 1.82403 6.27282 -50.0101 -1.64246 -2.32523 -0.262024 -0.200445 -1.28162 0.433082 -3.53673 
210 5.01221 2.17771 -52.6036 -1.34184 -0.348559 0.0546354 -0.502575 0.019196 0.991504 -3.52952 
211 2.80522 2.14769 -51.32 -1.10365 -0.946833 -0.112558 -0.278073 -0.333004 0.261772 -3.53414 
212 2.77226 2.17461 -48.7405 -1.96828 -1.83647 -0.545172 -0.291597 -0.223613 0.338094 -3.53087 
213 3.40036 4.25787 -50.02 -1.43123 -1.65372 -0.138695 -0.408347 -0.708784 0.286382 -3.53497 
214 4.971 2.23184 -50.02 -1.84398 -1.27385 -0.11348 -0.296348 0.0209178 0.836006 -3.535 
215 1.18965 4.18043 -48.7355 -2.17769 -2.75534 -0.785354 -0.180371 -0.850122 0.284258 -3.5364 
216 1.13972 4.18651 -46.1539 -2.63673 -3.19106 -0.973483 -0.165194 -0.833676 0.402188 -3.53604 
217 1.74858 6.27865 -47.4305 -2.1001 -2.83268 -0.672927 -0.213688 -1.24117 0.546437 -3.53588 
218 3.345 4.2875 -47.4411 -1.8978 -2.20774 -0.561103 -0.301202 -0.639292 0.335999 -3.53414 
219 1.67464 6.29044 -44.8493 -2.46944 -3.19087 -0.861471 -0.201038 -1.24473 0.604691 -3.53533 
220 4.9348 2.28446 -47.4403 -2.32147 -1.78814 -0.540424 -0.212364 0.105828 0.865013 -3.53419 
221 2.74197 2.20191 -46.1593 -2.36409 -2.26776 -0.738393 -0.232016 -0.161441 0.392703 -3.53074 
222 2.71358 2.23054 -43.5775 -2.67633 -2.59067 -0.949886 -0.216206 -0.150066 0.412811 -3.53037 
223 3.29147 4.31968 -44.8604 -2.23354 -2.57298 -0.716426 -0.260864 -0.625249 0.371265 -3.53392 
224 4.90189 2.33752 -44.8595 -2.65662 -2.14333 -0.721705 -0.178357 0.143261 0.89618 -3.53392 
225 1.09054 4.19505 -43.572 -2.97527 -3.51138 -1.20152 -0.153 -0.841582 0.427364 -3.53553 
226 1.04128 4.20428 -40.9908 -3.23484 -3.78663 -1.44281 -0.151043 -0.8546 0.433675 -3.53509 
227 1.6009 6.30392 -42.2683 -2.75162 -3.49735 -1.08868 -0.200661 -1.26247 0.620052 -3.53483 
228 3.23888 4.35332 -42.2794 -2.5069 -2.86952 -0.91649 -0.244053 -0.627619 0.388758 -3.5336 
229 1.5267 6.31808 -39.6884 -2.96216 -3.7646 -1.33264 -0.207764 -1.28155 0.623465 -3.53438 
230 4.8705 2.39145 -42.2785 -2.93982 -2.42579 -0.927429 -0.167838 0.154902 0.921096 -3.5336 
231 2.68574 2.2599 -40.9963 -2.9322 -2.85212 -1.18032 -0.213778 -0.148106 0.42653 -3.53006 
232 2.65799 2.28984 -38.4167 -3.14563 -3.06705 -1.42278 -0.218806 -0.147321 0.437827 -3.52981 
233 3.18652 4.38801 -39.6994 -2.72407 -3.1096 -1.14048 -0.238822 -0.632529 0.398979 -3.53333 
234 4.8397 2.44634 -39.6985 -3.17661 -2.64379 -1.15134 -0.168613 0.15961 0.942569 -3.53333 
235 0.991625 4.21377 -38.4113 -3.43416 -4.03109 -1.69401 -0.1563 -0.86692 0.434552 -3.53468 
236 0.941548 4.22348 -35.8343 -3.57497 -4.24153 -1.94985 -0.165919 -0.876782 0.429032 -3.53431 
237 1.45187 6.33274 -37.1107 -3.10423 -3.98824 -1.58495 -0.218624 -1.29731 0.618176 -3.53398 
238 3.13414 4.42364 -37.1215 -2.88547 -3.2933 -1.37461 -0.242328 -0.638844 0.401061 -3.53314 
239 1.37647 6.3479 -34.5362 -3.17884 -4.15723 -1.83197 -0.228995 -1.30932 0.5992 -3.53367 
240 4.80919 2.5022 -37.1205 -3.36405 -2.80026 -1.38416 -0.178958 0.159256 0.956269 -3.53314 
241 2.63024 2.32033 -35.8394 -3.31564 -3.23591 -1.66954 -0.230729 -0.149143 0.443473 -3.52963 
242 2.60246 2.35129 -33.2649 -3.43772 -3.35662 -1.91021 -0.249333 -0.15693 0.439619 -3.52955 
243 3.08167 4.46008 -34.5463 -2.98898 -3.41933 -1.60522 -0.253896 -0.649857 0.389767 -3.53306 
244 4.77889 2.5589 -34.5453 -3.4969 -2.89728 -1.61383 -0.199013 0.148871 0.957179 -3.53306 
245 0.891114 4.2334 -33.2603 -3.65679 -4.40905 -2.19893 -0.176544 -0.884456 0.413029 -3.53401 
246 0.840398 4.24344 -30.6896 -3.68714 -4.5309 -2.42767 -0.185175 -0.890795 0.385472 -3.5338 
247 1.30063 6.36344 -31.9652 -3.19609 -4.26963 -2.05748 -0.235838 -1.31869 0.564188 -3.53349 
248 3.029 4.49707 -31.9744 -3.03945 -3.49498 -1.81966 -0.271842 -0.66656 0.363934 -3.53307 
249 1.22439 6.37901 -29.3977 -3.17393 -4.33517 -2.25043 -0.238132 -1.32603 0.516681 -3.53342 
250 4.74866 2.61617 -31.9733 -3.57767 -2.94429 -1.82815 -0.227223 0.126025 0.945196 -3.53306 
251 2.57459 2.38255 -30.6937 -3.51334 -3.43344 -2.13353 -0.272843 -0.171343 0.42605 -3.52954 
252 2.54646 2.41387 -28.1258 -3.55107 -3.47691 -2.33107 -0.298334 -0.190032 0.406095 -3.52957 
253 2.97596 4.53417 -29.4059 -3.04936 -3.53431 -2.00962 -0.293183 -0.686572 0.328043 -3.53312 
254 4.71819 2.67368 -29.4046 -3.61682 -2.95665 -2.01848 -0.260215 0.0934952 0.924779 -3.5331 
255 0.789439 4.25341 -28.1224 -3.68077 -4.61301 -2.62643 -0.19004 -0.896269 0.349514 -3.53368 
256 0.73825 4.26307 -25.5582 -3.65287 -4.66511 -2.79165 -0.190603 -0.900939 0.309775 -3.53362 
257 1.14779 6.39422 -26.8335 -3.12989 -4.36764 -2.40751 -0.236064 -1.33142 0.462785 -3.53342 
258 2.9224 4.57102 -26.8405 -3.03292 -3.55106 -2.17175 -0.314685 -0.706895 0.288072 -3.53318 
259 1.07083 6.40875 -24.2719 -3.0772 -4.37941 -2.531 -0.230147 -1.33511 0.40792 -3.53347 
260 4.6872 2.73114 -26.8391 -3.62677 -2.94905 -2.18083 -0.294368 0.0561891 0.900919 -3.53316 
261 2.51795 2.44505 -25.561 -3.56195 -3.49865 -2.49889 -0.32307 -0.210034 0.383715 -3.52962 
262 2.48897 2.47595 -22.9988 -3.55589 -3.50805 -2.63691 -0.345229 -0.229216 0.361745 -3.52967 
263 2.86821 4.60734 -24.2778 -3.00201 -3.55549 -2.30617 -0.333829 -0.725467 0.248535 -3.53323 
264 4.65544 2.78836 -24.2763 -3.61829 -2.93243 -2.31491 -0.327025 0.0183969 0.877174 -3.53321 
265 0.686835 4.27225 -22.9967 -3.61523 -4.69669 -2.92452 -0.187116 -0.904828 0.270073 -3.5336 
266 0.635202 4.28083 -20.4373 -3.57558 -4.71522 -3.02882 -0.180195 -0.908087 0.232731 -3.5336 
267 0.993532 6.42238 -21.7127 -3.02437 -4.37968 -2.62583 -0.220955 -1.33764 0.355596 -3.53353 
268 2.81334 4.64295 -21.7174 -2.96502 -3.5543 -2.41502 -0.349185 -0.74136 0.211916 -3.53327 
269 0.91592 6.43499 -19.1551 -2.97611 -4.37456 -2.69747 -0.209104 -1.33963 0.307518 -3.53359 
270 4.6228 2.84522 -21.7158 -3.5994 -2.91386 -2.42287 -0.356728 -0.0171706 0.855526 -3.53325 
271 2.45946 2.50648 -20.4388 -3.54037 -3.51157 -2.74754 -0.363939 -0.246491 0.341682 -3.52971 
272 2.42941 2.5366 -17.8807 -3.52044 -3.51312 -2.83441 -0.379023 -0.261567 0.324051 -3.52975 
273 2.75778 4.67776 -19.1589 -2.92728 -3.55149 -2.50144 -0.360275 -0.754475 0.179156 -3.5333 
274 4.58921 2.90164 -19.1573 -3.57555 -2.89736 -2.50805 -0.382927 -0.0492745 0.836792 -3.53328 
275 0.583363 4.28874 -17.8797 -3.53841 -4.72601 -3.10918 -0.17056 -0.910979 0.198785 -3.5336 
276 0.531331 4.29595 -15.3234 -3.50587 -4.73247 -3.17013 -0.15891 -0.913803 0.168423 -3.53361 
277 0.838009 6.44652 -16.599 -2.9345 -4.36773 -2.75092 -0.195228 -1.34165 0.264146 -3.53365 
278 2.70155 4.71174 -16.602 -2.89177 -3.54923 -2.56884 -0.367256 -0.765178 0.150274 -3.53332 
279 0.759813 6.45694 -14.0439 -2.89985 -4.36121 -2.79032 -0.179944 -1.34408 0.225227 -3.53369 
280 4.55467 2.95758 -16.6003 -3.55015 -2.88487 -2.5741 -0.405636 -0.0776941 0.821073 -3.53331 
281 2.39884 2.56629 -15.324 -3.49924 -3.51484 -2.90139 -0.390723 -0.274617 0.308815 -3.52977 
282 2.36776 2.59555 -12.7685 -3.47849 -3.51769 -2.95214 -0.39949 -0.286028 0.295664 -3.52979 
283 2.64468 4.74489 -14.0462 -2.85985 -3.54848 -2.62056 -0.370629 -0.774013 0.124824 -3.53333 
284 4.51919 3.01305 -14.0446 -3.52515 -2.87696 -2.62451 -0.425176 -0.10278 0.808076 -3.53332 
285 0.479114 4.30245 -12.7682 -3.47859 -4.73665 -3.2156 -0.145857 -0.916815 0.141377 -3.53362 
286 0.426716 4.30824 -10.2137 -3.45621 -4.73969 -3.24885 -0.131918 -0.92015 0.117177 -3.53362 
287 0.681337 6.46626 -11.4896 -2.87139 -4.35593 -2.81891 -0.163787 -1.34711 0.190179 -3.53373 
288 2.58718 4.77721 -11.4914 -2.83175 -3.54951 -2.65956 -0.371033 -0.781499 0.102189 -3.53334 
289 0.602583 6.4745 -8.93595 -2.84772 -4.35215 -2.83915 -0.147178 -1.35065 0.158307 -3.53375 
290 4.48279 3.06803 -11.4897 -3.50144 -2.87346 -2.66229 -0.442 -0.125119 0.797328 -3.53333 
291 2.33618 2.62437 -10.2138 -3.45897 -3.5219 -2.98982 -0.405857 -0.29621 0.284198 -3.5298 
292 2.30412 2.65277 -7.65972 -3.4408 -3.52733 -3.01701 -0.410354 -0.305487 0.274025 -3.52981 
293 2.52909 4.80871 -8.93719 -2.80707 -3.55217 -2.68831 -0.369111 -0.788014 0.0817454 -3.53334 
294 4.44551 3.12251 -8.93556 -3.47928 -2.87379 -2.68989 -0.45659 -0.145318 0.788306 -3.53334 
295 0.374138 4.31333 -7.65984 -3.43782 -4.74212 -3.27241 -0.117508 -0.92375 0.0952885 -3.53362 
296 0.321382 4.31774 -5.10638 -3.42231 -4.74412 -3.28818 -0.102937 -0.927321 0.0751627 -3.53363 
297 0.52356 6.48167 -6.38268 -2.82731 -4.34976 -2.85283 -0.130388 -1.35433 0.12891 -3.53377 
298 2.47042 4.83942 -6.38351 -2.78504 -3.55616 -2.70877 -0.36541 -0.793727 0.0629434 -3.53334 
299 0.444291 6.48779 -3.82971 -2.8089 -4.34852 -2.86114 -0.113516 -1.35756 0.101308 -3.53378 
300 4.40736 3.17651 -6.38189 -3.45851 -2.87727 -2.7092 -0.469374 -0.163883 0.780507 -3.53334 
301 2.27159 2.68075 -5.10609 -3.42377 -3.53368 -3.03566 -0.413443 -0.314036 0.264799 -3.52982 
302 2.2386 2.70832 -2.55275 -3.40752 -3.54074 -3.04713 -0.415441 -0.321894 0.256236 -3.52982 
303 2.41121 4.86934 -3.83018 -2.76486 -3.56121 -2.72231 -0.360302 -0.798613 0.0453344 -3.53334 
304 4.36837 3.23001 -3.82856 -3.43883 -2.88332 -2.72158 -0.480643 -0.181179 0.77349 -3.53335 
305 0.268466 4.32147 -2.55319 -3.4087 -4.74566 -3.29735 -0.0883856 -0.930365 0.0562455 -3.53363 
306 0.364823 6.49289 -1.27694 -2.79194 -4.34821 -2.86473 -0.0964954 -1.35966 0.0748508 -3.5338 
307 2.35149 4.89846 -1.27706 -2.74603 -3.56721 -2.72979 -0.353922 -0.802511 0.0285595 -3.53335 
308 4.32858 3.28299 -1.27544 -3.41997 -2.89162 -2.72786 -0.490498 -0.197442 0.766891 -3.53335 
309 2.43639 7.09067 -0.000755652 -2.22119 -3.36383 -2.4027 -0.317672 -1.20926 -0.188501 -3.53289 
310 0.434651 8.66784 -0.000957507 -2.25252 -4.02076 -2.49713 -0.100074 -1.74667 0.0827882 -3.53355 