ITEM: TIMESTEP
1061
ITEM: NUMBER OF ATOMS
37664
ITEM: BOX BOUNDS ff ff ff
-100 100
-100 100
-156.15 156.15
ITEM: ATOMS id x y z v_peratom_sxx v_peratom_syy v_peratom_szz v_peratom_sxy v_peratom_sxz v_peratom_syz c_atomPE 
1 -0.00365818 -0.00219064 0.00105178 -5.17911 -5.17179 -9.53864 0.000273759 -0.0114303 -0.0277245 -3.51528 
2 -0.00396405 -0.00207954 2.5543 -5.1784 -5.171 -9.5377 -0.000144913 -0.0136575 -0.0265413 -3.51527 
3 -0.00429788 -0.00191339 5.10762 -5.17319 -5.1661 -9.52703 -0.00081768 -0.0140114 -0.0252867 -3.51532 
4 -0.00464574 -0.00169684 7.66113 -5.16266 -5.15646 -9.50514 -0.00173235 -0.0119549 -0.0241068 -3.51541 
5 -0.00498263 -0.00144439 10.215 -5.14585 -5.14124 -9.4699 -0.00279705 -0.00735931 -0.0230042 -3.51557 
6 -0.00527574 -0.0011763 12.7694 -5.12167 -5.11928 -9.41867 -0.00385777 -0.000590819 -0.0218339 -3.5158 
7 -0.00549069 -0.000912938 15.3246 -5.0888 -5.08902 -9.34826 -0.00474732 0.00756266 -0.0203814 -3.51612 
8 -0.00559875 -0.000669889 17.8809 -5.04542 -5.04828 -9.25481 -0.00533779 0.0160943 -0.0184731 -3.51655 
9 -0.0055824 -0.000455737 20.4386 -4.98882 -4.99406 -9.13363 -0.0055718 0.0240165 -0.0160598 -3.5171 
10 -0.00543783 -0.000272558 22.998 -4.91513 -4.92221 -8.97926 -0.00546593 0.0305511 -0.0132452 -3.5178 
11 -0.00517423 -0.000118267 25.5597 -4.81907 -4.82735 -8.78608 -0.00509359 0.0352325 -0.0102649 -3.51866 
12 -0.00481059 1.04524e-05 28.124 -4.69428 -4.7031 -8.54994 -0.0045578 0.0379271 -0.00742692 -3.51969 
13 -0.00437106 0.000115818 30.6914 -4.53478 -4.54357 -8.27129 -0.00396269 0.0387877 -0.00503348 -3.52089 
14 -0.00387996 0.000198003 33.262 -4.33881 -4.34717 -7.95887 -0.00339072 0.0381714 -0.00329999 -3.5222 
15 -0.00335759 0.000255554 35.8358 -4.11412 -4.12179 -7.6302 -0.00289092 0.0365439 -0.00230433 -3.52347 
16 -0.00281774 0.000286304 38.4125 -3.87668 -3.88354 -7.30364 -0.0024788 0.0343799 -0.00199291 -3.52458 
17 -0.00226661 0.000287731 40.9917 -3.63807 -3.64407 -6.98565 -0.00214276 0.0320912 -0.00224106 -3.52548 
18 -0.00170038 0.000256835 43.5731 -3.39926 -3.40438 -6.66348 -0.00184837 0.030069 -0.00290649 -3.5262 
19 -0.00110116 0.000189774 46.1569 -3.13503 -3.13917 -6.30035 -0.00152574 0.0286886 -0.00383698 -3.52695 
20 -0.000439646 7.85933e-05 48.7435 -2.75182 -2.75403 -5.86096 -0.000847449 0.0277721 -0.00497988 -3.52782 
21 5.95933e-07 -4.11185e-08 51.3317 -1.92306 -1.9229 -4.91974 7.92842e-05 -0.00140194 0.000245822 -3.53203 
22 4.01304e-07 -1.42881e-06 53.9138 -0.851915 -0.851925 -8.91777 8.02908e-07 -2.94465e-05 -7.13981e-05 -3.48169 
23 8.71386e-07 -1.98378e-06 56.3885 1.68559 1.6856 1.87687 -1.60809e-05 2.45887e-05 -1.89475e-07 -2.55581 
24 -1.23087e-07 -1.12453e-06 -53.8876 -2.60693 -2.60696 -6.54959 -1.85962e-05 1.04342e-05 -3.27025e-05 -3.40183 
25 1.02659e-07 -1.55837e-06 -51.3239 -2.07915 -2.07933 -5.57943 -0.000269635 0.000652288 0.00144392 -3.52873 
26 -0.000165847 -0.000410866 -48.7462 -2.69447 -2.69181 -6.14753 0.003543 -0.0105257 -0.0256614 -3.5264 
27 -0.000386026 -0.000989455 -46.1646 -3.02163 -3.01688 -6.34755 0.00626736 -0.00869259 -0.024005 -3.52678 
28 -0.000546843 -0.00143053 -43.5822 -3.30331 -3.29673 -6.60797 0.00687112 -0.00531368 -0.0227837 -3.52635 
29 -0.000650545 -0.00176761 -41.0007 -3.55903 -3.55041 -6.89645 0.0067792 -0.00158521 -0.0219697 -3.52574 
30 -0.000716497 -0.00201962 -38.4209 -3.80965 -3.79898 -7.20541 0.00621315 0.00216733 -0.0213989 -3.52491 
31 -0.000766953 -0.0021981 -35.8434 -4.05637 -4.04391 -7.53077 0.00528985 0.00560672 -0.0209862 -3.52384 
32 -0.000824758 -0.00231317 -33.2686 -4.28976 -4.27598 -7.86137 0.00414493 0.00837043 -0.0207531 -3.52261 
33 -0.000910181 -0.0023763 -30.6969 -4.49672 -4.48228 -8.17956 0.00294897 0.0101792 -0.0207759 -3.52132 
34 -0.00103705 -0.00240032 -28.1284 -4.6687 -4.65429 -8.46816 0.00187541 0.0109375 -0.0211258 -3.5201 
35 -0.00121002 -0.00239788 -25.5629 -4.80471 -4.79096 -8.71663 0.00105376 0.010766 -0.0218206 -3.51901 
36 -0.00142426 -0.00237991 -23.0002 -4.90882 -4.89616 -8.92201 0.000537161 0.00994179 -0.0228076 -3.5181 
37 -0.00166763 -0.00235486 -20.4399 -4.98695 -4.97559 -9.08672 0.000299571 0.00876878 -0.0239871 -3.51736 
38 -0.00192482 -0.00232907 -17.8814 -5.04489 -5.03484 -9.21581 0.000261321 0.00744424 -0.0252479 -3.51678 
39 -0.00218196 -0.0023074 -15.3245 -5.08757 -5.07867 -9.31511 0.000328107 0.00598264 -0.0264874 -3.51632 
40 -0.00243025 -0.00229321 -12.7687 -5.1188 -5.11082 -9.39013 0.000424345 0.00423283 -0.0276067 -3.51597 
41 -0.00266771 -0.00228716 -10.2138 -5.14147 -5.13411 -9.44569 0.000507031 0.00197995 -0.028494 -3.51572 
42 -0.002899 -0.00228546 -7.65953 -5.15767 -5.15064 -9.48574 0.000557793 -0.000913065 -0.0290228 -3.51553 
43 -0.00313363 -0.00227871 -5.10574 -5.16884 -5.16187 -9.51333 0.000561659 -0.00438011 -0.0290821 -3.5154 
44 -0.00338321 -0.00225254 -2.55226 -5.17587 -5.16876 -9.53058 0.000486179 -0.0080845 -0.0286278 -3.51532 
45 0.0924549 2.15788 1.27692 -4.05629 -5.14037 -3.83752 -0.0511318 -0.452221 0.0037419 -3.52907 
46 0.0657751 2.15902 3.83011 -4.05013 -5.13951 -3.8317 -0.0397713 -0.452437 -0.00540751 -3.52908 
47 0.039093 2.15987 6.38343 -4.04468 -5.13631 -3.81755 -0.0283796 -0.451045 -0.0149747 -3.5291 
48 0.0124605 2.16042 8.93703 -4.0407 -5.13057 -3.79381 -0.0167284 -0.448101 -0.0252151 -3.52913 
49 -0.0140672 2.16063 11.4911 -4.03921 -5.12189 -3.75884 -0.00465398 -0.443999 -0.0363132 -3.52918 
50 -0.0404407 2.1605 14.0458 -4.04113 -5.10956 -3.71058 0.00782352 -0.439341 -0.0484527 -3.52922 
51 -0.0666243 2.16001 16.6015 -4.04696 -5.09234 -3.64639 0.0204439 -0.434748 -0.0618853 -3.52928 
52 -0.0926002 2.15915 19.1583 -4.05637 -5.0683 -3.56294 0.0327232 -0.430706 -0.0769461 -3.52935 
53 -0.118368 2.15793 21.7168 -4.06787 -5.03455 -3.45617 0.0440141 -0.427489 -0.0939768 -3.52943 
54 -0.143944 2.15636 24.2771 -4.07826 -4.98681 -3.32145 0.0535887 -0.425145 -0.113111 -3.52953 
55 -0.169352 2.15449 26.8399 -4.08173 -4.91912 -3.15441 0.060747 -0.423529 -0.133868 -3.52967 
56 -0.194623 2.15238 29.4055 -4.06882 -4.82374 -2.95256 0.0649928 -0.42235 -0.154594 -3.52986 
57 -0.219778 2.15011 31.9742 -4.0262 -4.69256 -2.71802 0.0663191 -0.421208 -0.172151 -3.53012 
58 -0.244823 2.1478 34.5463 -3.94004 -4.52117 -2.45976 0.0655204 -0.419602 -0.183044 -3.53047 
59 -0.269735 2.14548 37.1216 -3.80475 -4.31497 -2.19201 0.0641514 -0.416949 -0.186989 -3.53087 
60 -0.294474 2.14307 39.6996 -3.62862 -4.08862 -1.92625 0.0637792 -0.412779 -0.189022 -3.53128 
61 -0.319014 2.1405 42.2798 -3.42357 -3.85288 -1.66278 0.065119 -0.407185 -0.19524 -3.53164 
62 -0.343391 2.13767 44.8621 -3.19606 -3.60459 -1.39024 0.0674163 -0.400734 -0.212212 -3.53193 
63 -0.367766 2.13483 47.4464 -2.91616 -3.29364 -1.10605 0.0673389 -0.395857 -0.231649 -3.53223 
64 -0.392512 2.13371 50.032 -2.43439 -2.80056 -0.495167 0.0605376 -0.414718 -0.201057 -3.53323 
65 -0.418483 2.1304 52.6263 -1.76577 -2.00551 -0.561406 0.0455039 -0.30893 -0.730005 -3.52457 
66 -0.44812 2.14653 55.1778 6.9766 7.73843 2.43089 0.0330172 -0.597321 1.77022 -3.02528 
67 0.649859 2.05055 -55.162 1.38945 0.842391 -0.678355 -0.188252 -0.0991977 1.20762 -3.26036 
68 0.633027 2.08274 -52.6122 -1.11196 -2.21867 -0.457719 -0.374491 -0.489286 -0.161478 -3.53566 
69 0.607028 2.08678 -50.0319 -2.00264 -2.55481 -0.871369 -0.170244 -0.429401 0.0815454 -3.53399 
70 0.581334 2.08836 -47.4532 -2.63775 -3.07117 -1.20645 -0.127111 -0.403053 0.155587 -3.5329 
71 0.556543 2.09194 -44.8711 -3.05911 -3.44046 -1.3665 -0.106857 -0.39743 0.199027 -3.53225 
72 0.531935 2.09627 -42.2892 -3.35806 -3.72596 -1.59547 -0.0983841 -0.40117 0.210621 -3.53183 
73 0.507218 2.10082 -39.7085 -3.60177 -3.98195 -1.84615 -0.0972541 -0.406542 0.21656 -3.53141 
74 0.482296 2.10545 -37.1298 -3.80408 -4.22 -2.10984 -0.101709 -0.411475 0.220064 -3.53097 
75 0.457165 2.11016 -34.5537 -3.96185 -4.43502 -2.37938 -0.110098 -0.415598 0.218796 -3.53055 
76 0.431857 2.11496 -31.9806 -4.07076 -4.61722 -2.64267 -0.120091 -0.419221 0.210048 -3.53018 
77 0.406398 2.11978 -29.4108 -4.13416 -4.76139 -2.88602 -0.129155 -0.422636 0.193811 -3.52988 
78 0.380802 2.12454 -26.8442 -4.16243 -4.86962 -3.09938 -0.135434 -0.425878 0.172672 -3.52965 
79 0.355076 2.12913 -24.2805 -4.16749 -4.94828 -3.27849 -0.138115 -0.428854 0.149694 -3.52948 
80 0.329227 2.13348 -21.7193 -4.15926 -5.00459 -3.42393 -0.13721 -0.431494 0.127139 -3.52936 
81 0.303267 2.13752 -19.1602 -4.14474 -5.04478 -3.53905 -0.133176 -0.433816 0.106257 -3.52927 
82 0.277209 2.14124 -16.6028 -4.12838 -5.07365 -3.62832 -0.126619 -0.435931 0.0875346 -3.52921 
83 0.251063 2.14463 -14.0466 -4.11272 -5.09461 -3.69627 -0.118131 -0.438014 0.0710078 -3.52916 
84 0.224836 2.14766 -11.4914 -4.09897 -5.11001 -3.747 -0.108232 -0.440246 0.0564943 -3.52912 
85 0.198529 2.15035 -8.937 -4.08745 -5.12138 -3.78396 -0.0973716 -0.442745 0.0437309 -3.5291 
86 0.172136 2.1527 -6.3831 -4.07793 -5.12968 -3.80988 -0.0859398 -0.445485 0.0324235 -3.52908 
87 0.145656 2.15473 -3.82957 -4.06992 -5.13547 -3.82675 -0.0742724 -0.448257 0.0222455 -3.52907 
88 0.119091 2.15646 -1.27627 -4.06285 -5.13901 -3.8358 -0.0626251 -0.450669 0.0128228 -3.52906 
89 0.215424 4.32456 -0.000168371 -3.39671 -4.74668 -3.30057 -0.0738836 -0.932515 0.0380804 -3.53364 
90 0.285228 6.49698 1.27574 -2.77668 -4.34866 -2.86384 -0.0792276 -1.3603 0.0489647 -3.53381 
91 2.20519 2.73546 0.000426631 -3.39192 -3.5484 -3.05211 -0.416442 -0.329076 0.24814 -3.52982 
92 2.17136 2.76217 2.55357 -3.37645 -3.5569 -3.0509 -0.416397 -0.335358 0.240227 -3.52983 
93 2.29131 4.92679 1.27597 -2.72851 -3.57419 -2.73153 -0.346217 -0.80539 0.0123002 -3.53335 
94 4.28803 3.33543 1.27761 -3.40193 -2.90204 -2.72838 -0.49884 -0.212898 0.760446 -3.53335 
95 0.162292 4.327 2.5528 -3.38581 -4.74722 -3.29787 -0.0593547 -0.932802 0.0199412 -3.53365 
96 0.109157 4.32879 5.10583 -3.37743 -4.74737 -3.28889 -0.0444574 -0.931256 0.00146586 -3.53366 
97 0.205607 6.50005 3.82843 -2.76448 -4.35013 -2.85838 -0.0613187 -1.35893 0.0229815 -3.53382 
98 2.23075 4.95429 3.82901 -2.71263 -3.58257 -2.72737 -0.336764 -0.806888 -0.00371307 -3.53335 
99 0.12608 6.5021 6.38124 -2.75755 -4.35286 -2.84805 -0.0426646 -1.35616 -0.0035828 -3.53383 
100 4.24675 3.3873 3.83069 -3.3848 -2.91491 -2.72317 -0.505316 -0.227586 0.753896 -3.53336 
101 2.13717 2.78843 5.10681 -3.36167 -3.56658 -3.04303 -0.414839 -0.340759 0.232385 -3.52983 
102 2.10268 2.8142 7.66027 -3.34826 -3.57776 -3.02762 -0.41125 -0.345416 0.224437 -3.52983 
103 2.16988 4.98095 6.38221 -2.69976 -3.59258 -2.71678 -0.325178 -0.80733 -0.0198259 -3.53336 
104 4.2048 3.43856 6.38393 -3.36934 -2.93053 -2.71171 -0.509443 -0.241787 0.747104 -3.53336 
105 0.0561041 4.32993 7.65906 -3.37315 -4.74731 -3.27295 -0.0289365 -0.928129 -0.0177451 -3.53368 
106 0.00321319 4.33038 10.2127 -3.37474 -4.74713 -3.24912 -0.0126788 -0.924029 -0.0380701 -3.53369 
107 0.0467509 6.50311 8.93432 -2.75797 -4.35721 -2.8324 -0.0232938 -1.35273 -0.0312635 -3.53383 
108 2.10879 5.00672 8.93568 -2.69137 -3.60442 -2.69893 -0.311139 -0.807183 -0.0364965 -3.53336 
109 -0.0323001 6.50305 11.4878 -2.76731 -4.36342 -2.81068 -0.0034312 -1.3495 -0.0606477 -3.53382 
110 4.16223 3.48917 8.93747 -3.35641 -2.94922 -2.69317 -0.510735 -0.255879 0.739891 -3.53336 
111 2.06792 2.83946 10.2141 -3.33715 -3.5906 -3.00339 -0.405125 -0.349678 0.216142 -3.52983 
112 2.03296 2.86417 12.7685 -3.32931 -3.60497 -2.96866 -0.39609 -0.354103 0.207149 -3.52982 
113 2.04753 5.03158 11.4896 -2.68887 -3.61803 -2.67269 -0.294495 -0.807136 -0.0543333 -3.53336 
114 4.11909 3.5391 11.4914 -3.34694 -2.97119 -2.66635 -0.508771 -0.270416 0.731995 -3.53336 
115 -0.0494506 4.33013 12.7668 -3.38369 -4.74673 -3.2161 0.0042058 -0.919706 -0.0599306 -3.5337 
116 -0.101846 4.32915 15.3217 -3.40094 -4.74566 -3.17214 0.0213835 -0.915817 -0.083839 -3.53371 
117 -0.111026 6.5019 14.0419 -2.78646 -4.37153 -2.78175 0.0165478 -1.34719 -0.0924125 -3.5338 
118 1.98615 5.05549 14.0442 -2.69335 -3.63314 -2.63663 -0.275265 -0.807977 -0.0740944 -3.53336 
119 -0.189408 6.49964 16.5968 -2.81566 -4.38123 -2.74387 0.0361932 -1.3462 -0.127328 -3.53376 
120 4.0754 3.58831 14.0461 -3.34169 -2.99646 -2.62964 -0.503224 -0.286113 0.723017 -3.53336 
121 1.99782 2.88831 15.3237 -3.32547 -3.62037 -2.92133 -0.383949 -0.359387 0.196972 -3.52981 
122 1.96251 2.91186 17.8799 -3.32584 -3.63585 -2.85883 -0.368649 -0.36627 0.185012 -3.52979 
123 1.92467 5.07843 16.5996 -2.70541 -3.64912 -2.58885 -0.253581 -0.810472 -0.0966478 -3.53335 
124 4.03117 3.63677 16.6015 -3.3411 -3.0248 -2.58106 -0.493854 -0.303796 0.712388 -3.53336 
125 -0.153954 4.32745 17.8776 -3.42667 -4.74294 -3.11477 0.0383536 -0.912777 -0.110396 -3.53371 
126 -0.205778 4.32501 20.4348 -3.46024 -4.73685 -3.04069 0.0545208 -0.910704 -0.140207 -3.5337 
127 -0.26745 6.49626 19.1527 -2.85454 -4.39167 -2.69449 0.0550537 -1.34657 -0.166205 -3.53371 
128 1.86309 5.10036 19.1561 -2.72507 -3.66498 -2.52691 -0.229618 -0.815276 -0.12289 -3.53334 
129 -0.345165 6.49178 21.7099 -2.90212 -4.40119 -2.63004 0.0727276 -1.348 -0.209748 -3.53364 
130 3.98642 3.68445 19.158 -3.34515 -3.05562 -2.51817 -0.480473 -0.324332 0.699386 -3.53334 
131 1.92704 2.93481 20.4374 -3.32988 -3.64985 -2.77805 -0.350244 -0.375428 0.170611 -3.52976 
132 1.89141 2.95715 22.9967 -3.33594 -3.65995 -2.67538 -0.328881 -0.387349 0.153198 -3.52973 
133 1.80139 5.12127 21.7141 -2.75163 -3.6791 -2.44778 -0.203581 -0.822893 -0.153603 -3.53331 
134 3.94112 3.73132 21.716 -3.3531 -3.08781 -2.43809 -0.462964 -0.348515 0.683196 -3.53332 
135 -0.257334 4.32187 22.9936 -3.49989 -4.72454 -2.94571 0.0692475 -0.909443 -0.173682 -3.5337 
136 -0.308648 4.31806 25.5544 -3.54214 -4.70148 -2.8249 0.0818757 -0.908665 -0.210635 -3.5337 
137 -0.422571 6.48623 24.2687 -2.95652 -4.40681 -2.5458 0.0888741 -1.34989 -0.258246 -3.53357 
138 1.73957 5.14117 24.2738 -2.78338 -3.68891 -2.34793 -0.17576 -0.833612 -0.189176 -3.53328 
139 -0.499681 6.47969 26.8296 -3.01423 -4.40353 -2.436 0.103167 -1.35147 -0.31102 -3.53351 
140 3.89528 3.77736 24.2756 -3.3632 -3.11927 -2.33756 -0.441385 -0.37687 0.663082 -3.53329 
141 1.8556 2.97889 25.558 -3.34065 -3.66228 -2.54699 -0.304901 -0.402114 0.13256 -3.52968 
142 1.81964 3.00008 28.1218 -3.33802 -3.65084 -2.38957 -0.279053 -0.419015 0.109358 -3.52962 
143 1.67763 5.16008 26.8357 -2.8169 -3.69043 -2.22366 -0.146727 -0.847364 -0.229127 -3.53323 
144 3.84893 3.82258 26.8375 -3.37203 -3.14631 -2.21319 -0.416204 -0.40926 0.63874 -3.53324 
145 -0.35975 4.31368 28.1177 -3.58059 -4.66085 -2.67332 0.0917405 -0.907979 -0.249664 -3.53373 
146 -0.410668 4.30887 30.684 -3.60437 -4.59307 -2.48762 0.0982547 -0.906992 -0.28745 -3.53381 
147 -0.576511 6.47232 29.393 -3.06869 -4.38335 -2.29444 0.115178 -1.35208 -0.365629 -3.53348 
148 1.61557 5.17813 29.4002 -2.84591 -3.67749 -2.07183 -0.117654 -0.863341 -0.271332 -3.53318 
149 -0.653071 6.4644 31.9595 -3.1084 -4.3344 -2.11633 0.124246 -1.3512 -0.417111 -3.5335 
150 3.80214 3.86703 29.4019 -3.37349 -3.16265 -2.0619 -0.388648 -0.444209 0.610932 -3.53318 
151 1.78358 3.02083 30.6886 -3.31829 -3.61683 -2.20161 -0.252817 -0.435995 0.085852 -3.52957 
152 1.74754 3.0413 33.2586 -3.2678 -3.54909 -1.98526 -0.228569 -0.449389 0.0662919 -3.52956 
153 1.55348 5.19554 31.9678 -2.85959 -3.64107 -1.89092 -0.0906431 -0.879306 -0.311153 -3.53312 
154 3.75508 3.91086 31.9693 -3.35734 -3.15825 -1.88183 -0.36102 -0.478052 0.582341 -3.53311 
155 -0.461414 4.30387 33.2536 -3.59729 -4.4868 -2.26898 0.101187 -0.905166 -0.3188 -3.53397 
156 -0.51196 4.29887 35.8266 -3.54128 -4.33307 -2.02608 0.101126 -0.901531 -0.339133 -3.53423 
157 -0.729357 6.45633 34.5294 -3.11546 -4.24114 -1.90198 0.129567 -1.34827 -0.458364 -3.53363 
158 1.49151 5.21265 34.5386 -2.84148 -3.5691 -1.68268 -0.0686252 -0.890939 -0.341525 -3.53309 
159 -0.805308 6.44846 37.103 -3.06835 -4.08889 -1.66155 0.130854 -1.34193 -0.483661 -3.53389 
160 3.70806 3.95431 34.54 -3.3082 -3.11911 -1.67417 -0.336503 -0.504861 0.557972 -3.53308 
161 1.7117 3.06171 35.832 -3.1723 -3.43755 -1.74776 -0.208968 -0.455221 0.0552597 -3.52962 
162 1.6762 3.08217 38.4085 -3.02601 -3.28042 -1.49993 -0.195118 -0.452995 0.0524425 -3.52978 
163 1.42989 5.22988 37.1129 -2.77239 -3.44881 -1.45403 -0.0542587 -0.892874 -0.35643 -3.53314 
164 3.66142 3.99766 37.1141 -3.20772 -3.03089 -1.44559 -0.317892 -0.519133 0.543034 -3.53313 
165 -0.562233 4.29395 38.4028 -3.42723 -4.13423 -1.77415 0.0997633 -0.89483 -0.349919 -3.53458 
166 -0.612141 4.28895 40.9816 -3.26256 -3.90635 -1.52564 0.099344 -0.884458 -0.360104 -3.53492 
167 -0.880801 6.44091 39.6798 -2.95524 -3.87722 -1.41504 0.129381 -1.33036 -0.496035 -3.53425 
168 1.36886 5.2474 39.6902 -2.64161 -3.27551 -1.21683 -0.047906 -0.883745 -0.35905 -3.53331 
169 -0.955727 6.43339 42.259 -2.78447 -3.62632 -1.1803 0.127882 -1.31347 -0.508204 -3.53461 
170 3.61542 4.04107 39.6913 -3.04552 -2.88854 -1.20851 -0.30558 -0.521991 0.536181 -3.5333 
171 1.64104 3.1026 40.9876 -2.83723 -3.08662 -1.24954 -0.185328 -0.447879 0.0499013 -3.53 
172 1.60614 3.12286 43.5687 -2.61589 -2.86429 -0.994276 -0.177061 -0.446348 0.0394002 -3.53027 
173 1.30846 5.26508 42.2698 -2.45554 -3.05843 -0.98126 -0.0467292 -0.869973 -0.363734 -3.53355 
174 3.57001 4.08445 42.2709 -2.82895 -2.70056 -0.974704 -0.297375 -0.523178 0.526595 -3.53354 
175 -0.66167 4.28367 43.5624 -3.05844 -3.65995 -1.28017 0.101051 -0.871214 -0.378022 -3.53523 
176 -0.710989 4.2781 46.1447 -2.82684 -3.39336 -1.01799 0.104121 -0.857281 -0.408942 -3.53549 
177 -1.03015 6.42569 44.8395 -2.56314 -3.34338 -0.964248 0.127786 -1.29352 -0.52534 -3.53495 
178 1.24856 5.28276 44.851 -2.22145 -2.80252 -0.748874 -0.048961 -0.859983 -0.381914 -3.53386 
179 -1.10443 6.41816 47.4204 -2.2985 -3.01768 -0.779327 0.130001 -1.27514 -0.537458 -3.53528 
180 3.52498 4.12774 44.852 -2.56335 -2.47449 -0.749949 -0.290619 -0.531556 0.505765 -3.53383 
181 1.57129 3.14294 46.1516 -2.36657 -2.61628 -0.716676 -0.169934 -0.4559 0.0127647 -3.53054 
182 1.53636 3.16327 48.7364 -2.09019 -2.36098 -0.345959 -0.182722 -0.47877 -0.02571 -3.53015 
183 1.1887 5.30045 47.4331 -1.94588 -2.50561 -0.517988 -0.0628567 -0.866558 -0.426428 -3.53411 
184 3.48005 4.171 47.4338 -2.24254 -2.22062 -0.541862 -0.285306 -0.557903 0.462427 -3.53403 
185 -0.760608 4.27328 48.7285 -2.6041 -3.07517 -0.672104 0.0974616 -0.849718 -0.413024 -3.53515 
186 -0.811621 4.26877 51.3169 -1.98848 -2.35116 0.310472 0.0838818 -0.841703 -0.653449 -3.53805 
187 -1.17889 6.41384 50.0002 -2.05973 -2.54266 -0.336629 0.0873683 -1.28007 -0.616625 -3.53572 
188 1.12775 5.31799 50.0156 -1.56907 -2.07879 -0.020616 -0.110967 -0.945823 -0.59504 -3.53485 
189 -1.25707 6.40546 52.5877 -1.61234 -2.48688 0.643301 0.175759 -1.31617 -0.613145 -3.53282 
190 3.43505 4.21346 50.0156 -1.75823 -1.85271 -0.0377358 -0.309214 -0.668224 0.314398 -3.53491 
191 1.50027 3.18358 51.3264 -1.43157 -1.70132 0.658636 -0.172625 -0.54836 -0.133369 -3.53273 
192 1.46587 3.20964 53.9052 0.0267017 0.953992 -0.795869 0.566308 -0.560984 0.138971 -3.37565 
193 1.06597 5.33731 52.6041 -1.24921 -1.89855 0.441467 -0.236972 -0.801325 -0.410823 -3.52779 
194 3.38747 4.26008 52.6041 -1.41016 -1.71356 0.389817 -0.390656 -0.639444 0.587322 -3.52746 
195 -0.866323 4.2769 53.8949 -0.0508687 -0.20614 -1.18049 0.0793785 -1.26166 1.02744 -3.38132 
196 1.3298 4.1174 -56.3442 5.06942 2.90559 1.60242 -1.25473 -0.273892 0.110264 -2.79034 
197 -1.33605 6.40133 55.1665 4.18004 2.79746 1.28995 0.319921 -1.5232 0.197885 -3.26107 
198 1.00488 5.36129 55.1754 5.64209 6.63186 2.70775 0.369867 -0.636458 -0.032611 -3.15047 
199 1.98371 6.26223 -55.1334 6.93989 9.11553 2.92917 0.134187 -0.847908 -0.525659 -3.02309 
200 3.34328 4.30996 55.1754 5.53065 7.35768 2.86912 0.118702 -0.278622 0.562639 -3.15115 
201 2.87095 2.09325 -56.362 4.04253 6.0065 1.88101 -3.16453 0.252646 0.341792 -2.79939 
202 2.84551 2.1252 -53.8874 0.165022 0.763304 -3.02646 -0.982108 -0.732815 -0.162365 -3.51266 
203 3.53831 4.21674 -55.1525 6.03166 6.27392 1.75936 0.302437 -1.2195 -0.0444713 -3.1433 
204 5.07312 2.13635 -55.1525 6.04997 7.03887 2.00315 0.446065 -0.528119 0.0805382 -3.14511 
205 1.29262 4.16451 -53.8815 0.86127 -0.348228 -3.67504 -0.408874 -0.573881 0.839001 -3.51412 
206 1.24176 4.17585 -51.3147 -1.28678 -1.91098 -0.373657 -0.214932 -0.880579 0.220128 -3.53903 
207 1.90264 6.26187 -52.5941 -0.91783 -1.4568 -0.57301 -0.18418 -1.16804 0.819996 -3.52792 
208 3.4607 4.22944 -52.6036 -0.74888 -0.925833 0.0954392 -0.677537 -0.496073 0.191363 -3.53019 
209 1.82403 6.27282 -50.0101 -1.64249 -2.32531 -0.262126 -0.200421 -1.28156 0.433119 -3.53673 
210 5.01221 2.17771 -52.6036 -1.34185 -0.348569 0.0546151 -0.502577 0.0191958 0.991503 -3.52952 
211 2.80522 2.14769 -51.32 -1.10367 -0.946859 -0.112674 -0.278079 -0.33302 0.26177 -3.53414 
212 2.77226 2.17461 -48.7405 -1.96849 -1.83657 -0.545469 -0.291632 -0.223378 0.33819 -3.53087 
213 3.40036 4.25787 -50.02 -1.43132 -1.65381 -0.138875 -0.408373 -0.708693 0.286438 -3.53496 
214 4.971 2.23184 -50.02 -1.8441 -1.27392 -0.113652 -0.296361 0.0210176 0.83604 -3.535 
215 1.18966 4.18043 -48.7355 -2.1779 -2.75548 -0.785581 -0.180412 -0.849984 0.284329 -3.5364 
216 1.13973 4.18651 -46.154 -2.63699 -3.19117 -0.973756 -0.165259 -0.833568 0.402261 -3.53604 
217 1.74859 6.27866 -47.4305 -2.10027 -2.83276 -0.673142 -0.213737 -1.2411 0.546503 -3.53588 
218 3.34501 4.2875 -47.4411 -1.89795 -2.20779 -0.561386 -0.301239 -0.639151 0.336091 -3.53414 
219 1.67465 6.29044 -44.8494 -2.46965 -3.19096 -0.861683 -0.201116 -1.24466 0.604768 -3.53533 
220 4.93481 2.28446 -47.4403 -2.32166 -1.78817 -0.540685 -0.212386 0.105994 0.865063 -3.53419 
221 2.74198 2.20191 -46.1593 -2.3644 -2.26779 -0.738729 -0.232055 -0.161248 0.392787 -3.53074 
222 2.7136 2.23054 -43.5775 -2.67672 -2.59066 -0.950251 -0.216257 -0.149863 0.41291 -3.53037 
223 3.29149 4.31968 -44.8604 -2.23377 -2.57301 -0.71671 -0.260919 -0.625117 0.371364 -3.53392 
224 4.9019 2.33752 -44.8595 -2.6569 -2.14334 -0.721963 -0.178388 0.143417 0.896232 -3.53392 
225 1.09056 4.19505 -43.572 -2.97559 -3.51148 -1.2018 -0.15309 -0.841461 0.427459 -3.53553 
226 1.0413 4.20428 -40.9909 -3.23524 -3.78674 -1.44309 -0.151162 -0.85446 0.433796 -3.53509 
227 1.60091 6.30393 -42.2683 -2.75188 -3.49745 -1.0889 -0.200768 -1.26239 0.620147 -3.53483 
228 3.2389 4.35333 -42.2794 -2.50718 -2.86953 -0.916793 -0.244123 -0.627475 0.388874 -3.5336 
229 1.52672 6.31809 -39.6884 -2.96248 -3.76471 -1.33285 -0.2079 -1.28145 0.623578 -3.53438 
230 4.87052 2.39145 -42.2785 -2.94018 -2.42578 -0.927702 -0.167879 0.155066 0.921155 -3.5336 
231 2.68577 2.2599 -40.9963 -2.93266 -2.85208 -1.1807 -0.213843 -0.147876 0.426652 -3.53006 
232 2.65802 2.28984 -38.4167 -3.14616 -3.06699 -1.42319 -0.218884 -0.147065 0.437972 -3.52981 
233 3.18654 4.38802 -39.6994 -2.72441 -3.10959 -1.1408 -0.238904 -0.632369 0.399115 -3.53333 
234 4.83972 2.44634 -39.6985 -3.17702 -2.64377 -1.15163 -0.168663 0.159786 0.942637 -3.53333 
235 0.991653 4.21378 -38.4113 -3.43465 -4.03121 -1.69429 -0.156446 -0.86676 0.434692 -3.53468 
236 0.941581 4.22349 -35.8343 -3.57556 -4.24166 -1.95013 -0.166088 -0.876607 0.429181 -3.53431 
237 1.45189 6.33275 -37.1107 -3.10462 -3.98835 -1.58517 -0.218786 -1.2972 0.618298 -3.53398 
238 3.13416 4.42364 -37.1215 -2.88587 -3.29327 -1.37493 -0.24242 -0.638673 0.401212 -3.53314 
239 1.3765 6.34791 -34.5362 -3.17931 -4.15736 -1.83219 -0.229175 -1.30921 0.59932 -3.53367 
240 4.80921 2.5022 -37.1205 -3.36452 -2.80024 -1.38445 -0.179016 0.159439 0.956345 -3.53314 
241 2.63027 2.32033 -35.8394 -3.31625 -3.23585 -1.66994 -0.230818 -0.148873 0.443635 -3.52963 
242 2.6025 2.3513 -33.2649 -3.43837 -3.35657 -1.9106 -0.249428 -0.156662 0.439787 -3.52955 
243 3.08169 4.46009 -34.5463 -2.98945 -3.41931 -1.60555 -0.253993 -0.649683 0.389926 -3.53306 
244 4.77892 2.5589 -34.5453 -3.49742 -2.89727 -1.61412 -0.199077 0.149051 0.957258 -3.53306 
245 0.891151 4.23341 -33.2603 -3.65746 -4.40918 -2.19919 -0.176723 -0.884271 0.413174 -3.53401 
246 0.840438 4.24345 -30.6897 -3.68789 -4.53104 -2.42792 -0.185348 -0.89061 0.3856 -3.5338 
247 1.30066 6.36345 -31.9652 -3.19664 -4.26976 -2.05769 -0.236025 -1.31857 0.564295 -3.53349 
248 3.02903 4.49707 -31.9745 -3.03996 -3.49496 -1.81997 -0.271937 -0.666395 0.364089 -3.53307 
249 1.22442 6.37902 -29.3977 -3.17455 -4.3353 -2.25063 -0.238311 -1.3259 0.516766 -3.53342 
250 4.74869 2.61617 -31.9733 -3.57822 -2.94429 -1.82842 -0.227288 0.126189 0.945271 -3.53306 
251 2.57463 2.38255 -30.6938 -3.51402 -3.43341 -2.13389 -0.272935 -0.171095 0.426212 -3.52954 
252 2.5465 2.41387 -28.1258 -3.55174 -3.4769 -2.33139 -0.298414 -0.189815 0.406242 -3.52957 
253 2.976 4.53418 -29.4059 -3.04992 -3.53429 -2.00991 -0.293269 -0.686424 0.328184 -3.53312 
254 4.71823 2.67368 -29.4046 -3.61738 -2.95667 -2.01873 -0.260276 0.0936341 0.924844 -3.5331 
255 0.789482 4.25342 -28.1224 -3.68157 -4.61314 -2.62665 -0.190188 -0.89609 0.349616 -3.53368 
256 0.738293 4.26308 -25.5582 -3.65368 -4.66523 -2.79183 -0.190707 -0.900769 0.309847 -3.53362 
257 1.14782 6.39423 -26.8335 -3.13057 -4.36776 -2.40769 -0.236217 -1.33129 0.462842 -3.53342 
258 2.92244 4.57103 -26.8405 -3.03351 -3.55105 -2.17201 -0.314754 -0.70677 0.288192 -3.53318 
259 1.07086 6.40876 -24.272 -3.07793 -4.3795 -2.53116 -0.230258 -1.33498 0.40795 -3.53347 
260 4.68723 2.73114 -26.8391 -3.62732 -2.94909 -2.18105 -0.294419 0.056297 0.900969 -3.53316 
261 2.51799 2.44505 -25.561 -3.56258 -3.49866 -2.49915 -0.323129 -0.209855 0.383838 -3.52962 
262 2.48901 2.47595 -22.9988 -3.55647 -3.50809 -2.63711 -0.345258 -0.229074 0.361842 -3.52967 
263 2.86825 4.60734 -24.2778 -3.0026 -3.55549 -2.30639 -0.333873 -0.725365 0.24863 -3.53323 
264 4.65547 2.78836 -24.2763 -3.61881 -2.93248 -2.31511 -0.32706 0.0184737 0.877207 -3.53321 
265 0.686877 4.27225 -22.9967 -3.61603 -4.69677 -2.92466 -0.187163 -0.904669 0.270117 -3.5336 
266 0.635242 4.28083 -20.4373 -3.57635 -4.71528 -3.02893 -0.180176 -0.90794 0.232755 -3.5336 
267 0.99357 6.42239 -21.7127 -3.02514 -4.37975 -2.62596 -0.221011 -1.33751 0.355602 -3.53353 
268 2.81338 4.64295 -21.7174 -2.9656 -3.55431 -2.4152 -0.349197 -0.741278 0.211988 -3.53327 
269 0.915959 6.43499 -19.1551 -2.97692 -4.37459 -2.69757 -0.209098 -1.33952 0.307508 -3.53359 
270 4.62283 2.84522 -21.7158 -3.59987 -2.91392 -2.42303 -0.356739 -0.01712 0.855541 -3.53325 
271 2.45949 2.50648 -20.4388 -3.54088 -3.51162 -2.74768 -0.363931 -0.246381 0.341756 -3.52971 
272 2.42944 2.5366 -17.8807 -3.52088 -3.51319 -2.83447 -0.378976 -0.261478 0.324109 -3.52975 
273 2.75782 4.67776 -19.1589 -2.92785 -3.55151 -2.50156 -0.360251 -0.754409 0.17921 -3.5333 
274 4.58924 2.90164 -19.1573 -3.57598 -2.89742 -2.50816 -0.38291 -0.049242 0.836795 -3.53328 
275 0.583402 4.28874 -17.8797 -3.53915 -4.72604 -3.10926 -0.170475 -0.910848 0.198799 -3.5336 
276 0.531367 4.29595 -15.3234 -3.50658 -4.73247 -3.17017 -0.158765 -0.913698 0.168439 -3.53361 
277 0.838049 6.44652 -16.599 -2.93535 -4.36773 -2.751 -0.195165 -1.34156 0.264131 -3.53365 
278 2.70158 4.71174 -16.602 -2.89233 -3.54926 -2.56892 -0.367195 -0.765127 0.150317 -3.53332 
279 0.759853 6.45694 -14.0439 -2.90074 -4.3612 -2.79037 -0.179836 -1.34403 0.225217 -3.53369 
280 4.5547 2.95758 -16.6003 -3.55054 -2.88493 -2.57418 -0.40559 -0.0776713 0.821071 -3.53331 
281 2.39887 2.56629 -15.324 -3.49961 -3.51492 -2.90139 -0.390637 -0.274544 0.308866 -3.52977 
282 2.36778 2.59554 -12.7685 -3.47883 -3.51777 -2.95209 -0.399372 -0.285967 0.295715 -3.52979 
283 2.64471 4.74489 -14.0462 -2.8604 -3.54852 -2.6206 -0.370536 -0.77398 0.124862 -3.53333 
284 4.51921 3.01305 -14.0446 -3.5255 -2.87701 -2.62455 -0.425103 -0.102761 0.808076 -3.53332 
285 0.479148 4.30245 -12.7682 -3.47929 -4.73664 -3.21561 -0.145671 -0.916753 0.141405 -3.53362 
286 0.426748 4.30824 -10.2137 -3.45691 -4.73968 -3.24885 -0.131714 -0.92015 0.117226 -3.53362 
287 0.681376 6.46626 -11.4896 -2.8723 -4.35591 -2.81894 -0.16366 -1.34712 0.190182 -3.53373 
288 2.58721 4.77721 -11.4914 -2.8323 -3.54955 -2.65956 -0.370922 -0.781493 0.102225 -3.53334 
289 0.602618 6.47449 -8.93595 -2.8486 -4.35213 -2.83918 -0.147062 -1.35074 0.158329 -3.53375 
290 4.48281 3.06802 -11.4897 -3.50177 -2.8735 -2.66229 -0.441908 -0.125104 0.797337 -3.53333 
291 2.3362 2.62437 -10.2138 -3.45928 -3.52198 -2.98974 -0.405718 -0.296165 0.284255 -3.5298 
292 2.30414 2.65277 -7.65973 -3.44111 -3.52739 -3.01691 -0.410214 -0.305466 0.274086 -3.52981 
293 2.52911 4.80871 -8.93719 -2.8076 -3.5522 -2.6883 -0.369001 -0.788043 0.0817783 -3.53334 
294 4.44552 3.12251 -8.93556 -3.47959 -2.87382 -2.68987 -0.456494 -0.14531 0.788326 -3.53334 
295 0.374165 4.31332 -7.65984 -3.43849 -4.74211 -3.27241 -0.117317 -0.923826 0.0953602 -3.53362 
296 0.321404 4.31773 -5.10638 -3.4229 -4.7441 -3.28818 -0.102791 -0.927473 0.0752531 -3.53363 
297 0.523589 6.48166 -6.38268 -2.82807 -4.34974 -2.85285 -0.130311 -1.3545 0.128949 -3.53377 
298 2.47044 4.83942 -6.38351 -2.78552 -3.55616 -2.70874 -0.365325 -0.793799 0.0629694 -3.53334 
299 0.44431 6.48779 -3.82971 -2.80943 -4.3485 -2.86116 -0.113499 -1.35777 0.101357 -3.53378 
300 4.40737 3.17651 -6.38189 -3.45879 -2.87728 -2.70917 -0.469289 -0.163889 0.780537 -3.53334 
301 2.2716 2.68075 -5.1061 -3.42406 -3.53371 -3.03556 -0.413323 -0.314047 0.26486 -3.52982 
302 2.23861 2.70832 -2.55276 -3.40777 -3.54073 -3.04705 -0.415365 -0.321941 0.256288 -3.52982 
303 2.41122 4.86933 -3.83018 -2.76525 -3.56118 -2.7223 -0.360263 -0.798725 0.0453481 -3.53334 
304 4.36838 3.23 -3.82856 -3.43905 -2.88331 -2.72154 -0.480588 -0.181204 0.773524 -3.53335 
305 0.268479 4.32147 -2.55319 -3.40915 -4.74564 -3.29737 -0.0883097 -0.930573 0.0563442 -3.53363 
306 0.36483 6.49289 -1.27693 -2.79214 -4.34816 -2.86474 -0.0965411 -1.35988 0.0749004 -3.5338 
307 2.35149 4.89846 -1.27706 -2.74626 -3.56715 -2.72979 -0.353939 -0.80265 0.0285575 -3.53335 
308 4.32859 3.28299 -1.27544 -3.42011 -2.89157 -2.72782 -0.490484 -0.197489 0.76692 -3.53335 
309 2.43639 7.09067 -0.000753003 -2.22122 -3.36375 -2.40275 -0.317745 -1.20941 -0.18855 -3.53289 
310 0.434646 8.66783 -0.000956962 -2.25236 -4.02069 -2.49709 -0.100162 -1.74682 0.0828048 -3.53355 