ITEM: TIMESTEP
0
ITEM: NUMBER OF ATOMS
37664
ITEM: BOX BOUNDS ff ff ff
-100 100
-100 100
-156.15 156.15
ITEM: ATOMS id x y z v_peratom_sxx v_peratom_syy v_peratom_szz v_peratom_sxy v_peratom_sxz v_peratom_syz c_atomPE 
1 -0.00391484 -0.00204659 0.000945734 -5.17827 -5.16979 -9.53931 0.000934523 -0.0134287 -0.0366121 -3.51526 
2 -0.00411914 -0.00179824 2.55416 -5.17754 -5.16911 -9.53777 0.000203981 -0.0142723 -0.0359228 -3.51527 
3 -0.00433634 -0.00150837 5.10745 -5.17234 -5.16437 -9.52639 -0.00076024 -0.0136636 -0.0351944 -3.51532 
4 -0.00455998 -0.00118322 7.66096 -5.1619 -5.15499 -9.5038 -0.00194529 -0.0111426 -0.0345218 -3.51542 
5 -0.00477372 -0.000837263 10.2148 -5.14525 -5.14012 -9.46797 -0.00326108 -0.00659459 -0.0338611 -3.51558 
6 -0.00495371 -0.000489557 12.7693 -5.12132 -5.11862 -9.41636 -0.00455724 -0.000335314 -0.0330344 -3.51581 
7 -0.00507386 -0.000158634 15.3246 -5.08877 -5.08888 -9.34583 -0.00567019 0.00695344 -0.0318104 -3.51614 
8 -0.00511203 0.000141626 17.8809 -5.04572 -5.04874 -9.25254 -0.00647329 0.0144082 -0.0300128 -3.51657 
9 -0.00505487 0.00040372 20.4386 -4.98944 -4.99512 -9.13177 -0.00690655 0.0211986 -0.0275995 -3.51712 
10 -0.0048998 0.000625727 22.9981 -4.91603 -4.92389 -8.97804 -0.00698025 0.0266963 -0.0246887 -3.51781 
11 -0.00465434 0.000808901 25.5598 -4.8202 -4.82961 -8.78565 -0.00675941 0.030562 -0.0215358 -3.51867 
12 -0.00433316 0.000954848 28.1242 -4.69557 -4.70589 -8.55042 -0.00633905 0.0327532 -0.0184734 -3.5197 
13 -0.00395416 0.00106337 30.6916 -4.5362 -4.54684 -8.27272 -0.00581798 0.0334721 -0.0158305 -3.5209 
14 -0.00353452 0.00113161 33.2622 -4.34034 -4.35086 -7.96123 -0.00527676 0.0330766 -0.0138529 -3.52219 
15 -0.00308743 0.00115434 35.8361 -4.11574 -4.12582 -7.63339 -0.004765 0.031986 -0.0126561 -3.52346 
16 -0.00262039 0.00112477 38.4127 -3.87837 -3.8878 -7.30751 -0.00429939 0.0305932 -0.0122295 -3.52457 
17 -0.00213448 0.0010347 40.9919 -3.63979 -3.64844 -6.99 -0.00386755 0.0292107 -0.0124899 -3.52546 
18 -0.00162205 0.00087337 43.5732 -3.40099 -3.40871 -6.66807 -0.00342651 0.0281272 -0.0133613 -3.52619 
19 -0.00106289 0.000624831 46.157 -3.1369 -3.14336 -6.30489 -0.00287013 0.0276145 -0.0147937 -3.52693 
20 -0.000430475 0.0002641 48.7436 -2.7539 -2.75746 -5.86487 -0.00160221 0.0271981 -0.0166843 -3.52781 
21 5.95933e-07 -4.11185e-08 51.3317 -1.92316 -1.92289 -4.92077 0.000129646 -0.00139035 0.000872496 -3.53204 
22 4.01304e-07 -1.42881e-06 53.9138 -0.851928 -0.851939 -8.91781 -5.05195e-08 -2.84938e-05 -7.19234e-05 -3.48169 
23 8.71386e-07 -1.98378e-06 56.3885 1.68558 1.68559 1.87686 -1.64421e-05 2.49738e-05 -2.58073e-07 -2.55581 
24 -1.23087e-07 -1.12453e-06 -53.8876 -2.60692 -2.60694 -6.54959 -1.66974e-05 8.70334e-06 -3.29867e-05 -3.40183 
25 1.02659e-07 -1.55837e-06 -51.3239 -2.07922 -2.07931 -5.5797 -0.000387196 0.000921129 0.00212887 -3.52873 
26 -0.000238239 -0.000604723 -48.7462 -2.69471 -2.69292 -6.1485 0.00517157 -0.015043 -0.0378032 -3.52639 
27 -0.000546278 -0.00145042 -46.1646 -3.02178 -3.01837 -6.34869 0.00916431 -0.0127793 -0.0351404 -3.52678 
28 -0.00076351 -0.00208946 -43.5822 -3.30345 -3.29823 -6.609 0.0102318 -0.00899163 -0.0330213 -3.52634 
29 -0.000899383 -0.00257313 -41.0008 -3.55917 -3.5518 -6.89717 0.0104129 -0.0051061 -0.0314872 -3.52574 
30 -0.000980906 -0.00293176 -38.421 -3.80973 -3.80015 -7.20566 0.0100189 -0.00148412 -0.0303342 -3.52491 
31 -0.00103658 -0.00318381 -35.8434 -4.05636 -4.04474 -7.53045 0.00919385 0.00150974 -0.0294571 -3.52385 
32 -0.00109486 -0.00334393 -33.2686 -4.28962 -4.27642 -7.86044 0.00808271 0.00351298 -0.028878 -3.52261 
33 -0.0011812 -0.00342677 -30.6968 -4.49643 -4.48228 -8.17807 0.00685981 0.00429577 -0.0286719 -3.52133 
34 -0.0013137 -0.00344735 -28.1283 -4.66826 -4.65385 -8.46626 0.00570128 0.00386299 -0.0288976 -3.52011 
35 -0.00149986 -0.00341975 -25.5628 -4.80415 -4.7901 -8.71453 0.00474005 0.00247434 -0.0295485 -3.51903 
36 -0.00173571 -0.0033557 -23.0001 -4.90816 -4.89492 -8.91995 0.00403417 0.000564747 -0.0305403 -3.51811 
37 -0.00200779 -0.00326416 -20.4397 -4.98621 -4.97403 -9.08493 0.00356364 -0.00140791 -0.0317423 -3.51737 
38 -0.00229733 -0.00315196 -17.8812 -5.04411 -5.03304 -9.21452 0.00325533 -0.00311873 -0.0330222 -3.51678 
39 -0.00258533 -0.00302485 -15.3243 -5.08677 -5.0767 -9.31443 0.00302164 -0.00447017 -0.0342723 -3.51632 
40 -0.00285694 -0.00288789 -12.7685 -5.11801 -5.10874 -9.39012 0.00279396 -0.00558824 -0.035406 -3.51597 
41 -0.00310404 -0.00274457 -10.2137 -5.1407 -5.13199 -9.44627 0.00253666 -0.00672622 -0.0363385 -3.51571 
42 -0.00332589 -0.00259514 -7.65947 -5.15691 -5.14851 -9.48673 0.0022391 -0.00811991 -0.0369769 -3.51552 
43 -0.00352818 -0.0024352 -5.10574 -5.16807 -5.15977 -9.51449 0.00189407 -0.00985024 -0.0372397 -3.51539 
44 -0.00372078 -0.00225596 -2.55231 -5.17507 -5.1667 -9.53163 0.00147635 -0.0117572 -0.0370983 -3.5153 
45 0.092283 2.15814 1.27649 -4.0534 -5.13711 -3.83744 -0.0507672 -0.450007 -0.000481535 -3.52907 
46 0.0657469 2.1594 3.82965 -4.04835 -5.13679 -3.83126 -0.0396763 -0.449992 -0.00994841 -3.52909 
47 0.0392106 2.16035 6.38296 -4.04415 -5.1343 -3.81669 -0.0285525 -0.448641 -0.0198404 -3.52911 
48 0.0127149 2.16099 8.93657 -4.04141 -5.12938 -3.79253 -0.0171834 -0.445999 -0.0303802 -3.52914 
49 -0.0136953 2.16128 11.4907 -4.04102 -5.1216 -3.75723 -0.0054154 -0.442413 -0.0417294 -3.52918 
50 -0.0399793 2.16122 14.0454 -4.04378 -5.11018 -3.70875 0.00673138 -0.438411 -0.05406 -3.52922 
51 -0.0661072 2.16078 16.6011 -4.05008 -5.09384 -3.64451 0.019009 -0.434529 -0.0676205 -3.52928 
52 -0.0920633 2.15996 19.1581 -4.05956 -5.0706 -3.56116 0.0309557 -0.431169 -0.0827486 -3.52934 
53 -0.117847 2.15877 21.7166 -4.07073 -5.03752 -3.45464 0.0419518 -0.428533 -0.0997921 -3.52943 
54 -0.143468 2.15723 24.277 -4.08042 -4.99033 -3.3203 0.0512956 -0.426618 -0.118893 -3.52953 
55 -0.168946 2.15538 26.8398 -4.08293 -4.92303 -3.15373 0.0583074 -0.425242 -0.139585 -3.52967 
56 -0.194302 2.15327 29.4054 -4.06891 -4.82791 -2.95244 0.0625021 -0.424099 -0.160229 -3.52986 
57 -0.219549 2.151 31.9742 -4.02518 -4.69687 -2.71849 0.0638741 -0.422788 -0.177707 -3.53012 
58 -0.244683 2.14866 34.5463 -3.93803 -4.52551 -2.46081 0.0632116 -0.42083 -0.188549 -3.53047 
59 -0.269673 2.14629 37.1216 -3.802 -4.31924 -2.19356 0.0620584 -0.417681 -0.192499 -3.53087 
60 -0.294474 2.14381 39.6996 -3.62545 -4.09271 -1.92817 0.0619685 -0.412924 -0.194619 -3.53128 
61 -0.319055 2.14113 42.2798 -3.42037 -3.85663 -1.66488 0.0636448 -0.4067 -0.201037 -3.53164 
62 -0.34345 2.13816 44.8621 -3.19341 -3.60783 -1.39216 0.0663275 -0.399595 -0.218412 -3.53193 
63 -0.367813 2.13511 47.4464 -2.91506 -3.29626 -1.10668 0.0667106 -0.393939 -0.238761 -3.53223 
64 -0.392512 2.13371 50.032 -2.43249 -2.8015 -0.493646 0.0610088 -0.413266 -0.205417 -3.53324 
65 -0.418483 2.1304 52.6263 -1.76579 -2.00551 -0.561409 0.0454927 -0.308946 -0.72997 -3.52457 
66 -0.44812 2.14653 55.1778 6.9766 7.73843 2.43089 0.0330183 -0.597321 1.77021 -3.02528 
67 0.649859 2.05055 -55.162 1.38945 0.842394 -0.678349 -0.188252 -0.0991975 1.20762 -3.26036 
68 0.633027 2.08274 -52.6122 -1.11198 -2.2187 -0.457712 -0.37449 -0.489289 -0.161421 -3.53566 
69 0.607028 2.08678 -50.0319 -2.00565 -2.55598 -0.875902 -0.169241 -0.429797 0.076183 -3.53397 
70 0.581268 2.08803 -47.4533 -2.63827 -3.07269 -1.21055 -0.124988 -0.40346 0.147223 -3.5329 
71 0.556424 2.09137 -44.8713 -3.06016 -3.44232 -1.36875 -0.103446 -0.39771 0.191853 -3.53225 
72 0.531782 2.09554 -42.2894 -3.3596 -3.72784 -1.59708 -0.0941729 -0.401376 0.204131 -3.53182 
73 0.507041 2.09996 -39.7087 -3.60379 -3.98375 -1.84729 -0.0925212 -0.406779 0.210567 -3.53141 
74 0.482101 2.1045 -37.13 -3.80654 -4.22164 -2.11048 -0.0966342 -0.411879 0.21446 -3.53097 
75 0.456953 2.10916 -34.5539 -3.96463 -4.43641 -2.37949 -0.104835 -0.416299 0.213502 -3.53055 
76 0.431623 2.11393 -31.9808 -4.0737 -4.61826 -2.64225 -0.114785 -0.420317 0.205 -3.53017 
77 0.406134 2.11876 -29.4109 -4.137 -4.76197 -2.8851 -0.123948 -0.424177 0.188961 -3.52987 
78 0.380498 2.12354 -26.8443 -4.16488 -4.86968 -3.09806 -0.130456 -0.427849 0.167988 -3.52965 
79 0.354723 2.12817 -24.2806 -4.16926 -4.94777 -3.27692 -0.133476 -0.431173 0.145165 -3.52948 
80 0.328819 2.13258 -21.7194 -4.1601 -5.00346 -3.42228 -0.132993 -0.434018 0.122768 -3.52936 
81 0.302803 2.13671 -19.1603 -4.14447 -5.04303 -3.53749 -0.129438 -0.436354 0.102056 -3.52928 
82 0.276696 2.14053 -16.6029 -4.12694 -5.07131 -3.62702 -0.12339 -0.438264 0.0835117 -3.52921 
83 0.250516 2.14403 -14.0467 -4.11016 -5.09174 -3.69533 -0.115416 -0.439923 0.0671551 -3.52916 
84 0.224278 2.1472 -11.4916 -4.09548 -5.10669 -3.74647 -0.106014 -0.441539 0.052779 -3.52913 
85 0.197988 2.15003 -8.93722 -4.08332 -5.11775 -3.7838 -0.0956149 -0.443284 0.0400923 -3.52911 
86 0.171644 2.15253 -6.38337 -4.07353 -5.12588 -3.80999 -0.0845989 -0.44521 0.0287773 -3.52909 
87 0.145244 2.15471 -3.8299 -4.06565 -5.13167 -3.82697 -0.073298 -0.447194 0.0184947 -3.52908 
88 0.118788 2.15657 -1.27665 -4.0591 -5.13539 -3.83596 -0.0619725 -0.448935 0.00887319 -3.52907 
89 0.215207 4.32479 -0.000782226 -3.39202 -4.74244 -3.30013 -0.0732851 -0.929353 0.0363514 -3.53365 
90 0.285138 6.49731 1.27498 -2.77257 -4.34451 -2.86321 -0.0787083 -1.35636 0.0484585 -3.53382 
91 2.20498 2.73569 -5.84855e-05 -3.38895 -3.54397 -3.05076 -0.416091 -0.328469 0.246114 -3.52984 
92 2.17129 2.76248 2.55306 -3.37443 -3.55318 -3.04957 -0.416085 -0.334514 0.238178 -3.52984 
93 2.29122 4.92709 1.2753 -2.72479 -3.5705 -2.7302 -0.345849 -0.802906 0.0116548 -3.53336 
94 4.28792 3.33571 1.27703 -3.39944 -2.89787 -2.72668 -0.498237 -0.212148 0.758716 -3.53336 
95 0.162248 4.32735 2.55215 -3.38269 -4.74374 -3.29734 -0.0590373 -0.929566 0.0180058 -3.53366 
96 0.109286 4.32925 5.10517 -3.37608 -4.74489 -3.28821 -0.0444293 -0.92826 -0.000706044 -3.53367 
97 0.205721 6.50048 3.82764 -2.76243 -4.34711 -2.85781 -0.0611113 -1.35537 0.0222801 -3.53383 
98 2.23082 4.95466 3.82833 -2.71045 -3.57973 -2.72608 -0.336396 -0.804532 -0.00444501 -3.53336 
99 0.126378 6.50262 6.38045 -2.75756 -4.35121 -2.84752 -0.0427945 -1.35329 -0.00451395 -3.53384 
100 4.24677 3.38762 3.83009 -3.38346 -2.91163 -2.72148 -0.504655 -0.226758 0.75222 -3.53336 
101 2.13724 2.7888 5.10628 -3.36078 -3.56377 -3.04168 -0.414544 -0.33991 0.230242 -3.52984 
102 2.10288 2.81463 7.65974 -3.34857 -3.57596 -3.02626 -0.410992 -0.344788 0.222131 -3.52983 
103 2.17011 4.98137 6.38152 -2.69924 -3.59074 -2.71553 -0.324838 -0.805367 -0.0207556 -3.53336 
104 4.20496 3.43891 6.38333 -3.36928 -2.92831 -2.71005 -0.508756 -0.241081 0.745471 -3.53336 
105 0.0563901 4.33047 7.6584 -3.37355 -4.74599 -3.2721 -0.0292179 -0.925657 -0.0201588 -3.53368 
106 0.0036277 4.33099 10.212 -3.37667 -4.74705 -3.24811 -0.0132949 -0.922293 -0.0407124 -3.5337 
107 0.0471973 6.50369 8.93354 -2.75979 -4.35704 -2.83187 -0.0237798 -1.35078 -0.0324377 -3.53384 
108 2.10915 5.00719 8.93501 -2.69244 -3.60361 -2.69773 -0.31089 -0.805826 -0.0377181 -3.53336 
109 -0.0317534 6.50367 11.4871 -2.7705 -4.36472 -2.81014 -0.00427666 -1.34857 -0.0620618 -3.53382 
110 4.16251 3.48956 8.93688 -3.35761 -2.9481 -2.69157 -0.510095 -0.255481 0.738274 -3.53336 
111 2.06825 2.83995 10.2136 -3.33861 -3.58983 -3.00206 -0.404964 -0.349465 0.213615 -3.52983 
112 2.03338 2.86471 12.768 -3.33173 -3.60514 -2.96745 -0.396113 -0.354444 0.204355 -3.52982 
113 2.04799 5.03209 11.489 -2.69128 -3.61822 -2.6716 -0.294418 -0.806521 -0.0559147 -3.53336 
114 4.11946 3.53952 11.4909 -3.34924 -2.97112 -2.66484 -0.508278 -0.270472 0.730354 -3.53336 
115 -0.0489457 4.33079 12.7662 -3.38678 -4.74788 -3.21498 0.00323607 -0.91882 -0.0627768 -3.5337 
116 -0.101294 4.32987 15.3211 -3.40469 -4.74794 -3.17095 0.0200588 -0.915792 -0.086858 -3.5337 
117 -0.110432 6.50256 14.0412 -2.79047 -4.37418 -2.78118 0.015362 -1.34726 -0.0940507 -3.53379 
118 1.98667 5.05604 14.0436 -2.69674 -3.63419 -2.6357 -0.275443 -0.808153 -0.07607 -3.53336 
119 -0.188821 6.50033 16.5961 -2.81989 -4.38501 -2.74325 0.0347116 -1.34715 -0.129165 -3.53375 
120 4.07584 3.58878 14.0455 -3.34484 -2.99729 -2.62831 -0.50299 -0.286717 0.721308 -3.53336 
121 1.9983 2.88891 15.3233 -3.32855 -3.62135 -2.92034 -0.384247 -0.360353 0.193889 -3.5298 
122 1.96302 2.91251 17.8795 -3.32922 -3.63746 -2.85817 -0.3693 -0.367859 0.181639 -3.52978 
123 1.9252 5.07901 16.5991 -2.70931 -3.65089 -2.58814 -0.254077 -0.811402 -0.0990158 -3.53335 
124 4.03165 3.63729 16.601 -3.34476 -3.02635 -2.57998 -0.493977 -0.304982 0.710571 -3.53335 
125 -0.153399 4.3282 17.8771 -3.43055 -4.74618 -3.11357 0.0366983 -0.913533 -0.113553 -3.5337 
126 -0.205262 4.32579 20.4343 -3.46373 -4.74083 -3.03953 0.0525873 -0.91209 -0.143466 -3.53369 
127 -0.266918 6.49697 19.1521 -2.85842 -4.39631 -2.6938 0.053344 -1.34823 -0.168207 -3.5337 
128 1.86359 5.10098 19.1557 -2.72899 -3.66727 -2.52648 -0.230467 -0.816852 -0.125615 -3.53333 
129 -0.344728 6.4925 21.7094 -2.90517 -4.40637 -2.62927 0.070875 -1.35011 -0.211877 -3.53363 
130 3.98689 3.68502 19.1576 -3.34892 -3.0577 -2.51742 -0.481027 -0.326069 0.697428 -3.53334 
131 1.92755 2.93551 20.4371 -3.33316 -3.65191 -2.77781 -0.351296 -0.377572 0.166972 -3.52976 
132 1.89188 2.95789 22.9964 -3.33875 -3.66228 -2.67566 -0.330348 -0.389926 0.149336 -3.52972 
133 1.80184 5.12193 21.7137 -2.7551 -3.68172 -2.44766 -0.204783 -0.824951 -0.156618 -3.53331 
134 3.94157 3.73194 21.7156 -3.3566 -3.09019 -2.43773 -0.463986 -0.350722 0.68108 -3.53332 
135 -0.256891 4.32267 22.9932 -3.50253 -4.72902 -2.94466 0.0671122 -0.911261 -0.177006 -3.53369 
136 -0.308302 4.31887 25.5541 -3.54358 -4.70622 -2.82401 0.0796311 -0.910695 -0.213991 -3.53369 
137 -0.422256 6.48696 24.2683 -2.95836 -4.41221 -2.54496 0.086973 -1.35219 -0.260458 -3.53356 
138 1.73993 5.14186 24.2735 -2.786 -3.69169 -2.34816 -0.177284 -0.835959 -0.192397 -3.53327 
139 -0.499502 6.48042 26.8292 -3.0146 -4.40886 -2.43511 0.101312 -1.35373 -0.313278 -3.5335 
140 3.89568 3.77802 24.2754 -3.36608 -3.12177 -2.33765 -0.442873 -0.379424 0.660806 -3.53328 
141 1.85601 2.97967 25.5578 -3.34269 -3.66473 -2.54785 -0.306759 -0.404969 0.128534 -3.52967 
142 1.81997 3.00088 28.1217 -3.33906 -3.65328 -2.39103 -0.281244 -0.42197 0.105231 -3.52962 
143 1.67788 5.16079 26.8355 -2.81839 -3.6932 -2.22425 -0.148514 -0.849793 -0.232463 -3.53323 
144 3.84926 3.82328 26.8373 -3.37402 -3.14877 -2.21376 -0.418117 -0.412014 0.636312 -3.53323 
145 -0.359515 4.31449 28.1175 -3.58063 -4.66562 -2.67264 0.0894851 -0.909994 -0.253026 -3.53372 
146 -0.410547 4.30968 30.6838 -3.60294 -4.59771 -2.48722 0.096084 -0.908774 -0.290809 -3.5338 
147 -0.576469 6.47304 29.3927 -3.06751 -4.38836 -2.29355 0.113454 -1.35406 -0.367906 -3.53347 
148 1.61572 5.17885 29.4001 -2.84611 -3.68012 -2.07278 -0.119624 -0.865653 -0.274697 -3.53317 
149 -0.653154 6.46511 31.9592 -3.10575 -4.33892 -2.1155 0.122723 -1.35269 -0.4194 -3.53349 
150 3.80239 3.86776 29.4017 -3.37442 -3.16496 -2.06296 -0.390913 -0.447008 0.608363 -3.53317 
151 1.78382 3.02164 30.6885 -3.31824 -3.61918 -2.20365 -0.255254 -0.438875 0.0816796 -3.52957 
152 1.7477 3.04211 33.2586 -3.26669 -3.55129 -1.98782 -0.231141 -0.452039 0.0621112 -3.52955 
153 1.55353 5.19626 31.9676 -2.85847 -3.64348 -1.8922 -0.0927 -0.881327 -0.314487 -3.53311 
154 3.75525 3.91159 31.9692 -3.35717 -3.16033 -1.88336 -0.363528 -0.480754 0.579638 -3.53311 
155 -0.461398 4.30466 33.2534 -3.59452 -4.49117 -2.26887 0.0991861 -0.906523 -0.322167 -3.53396 
156 -0.512033 4.29963 35.8265 -3.53743 -4.33709 -2.02626 0.0993667 -0.902312 -0.342543 -3.53423 
157 -0.729541 6.45701 34.5292 -3.11159 -4.24507 -1.90124 0.128296 -1.34913 -0.460693 -3.53362 
158 1.49146 5.21336 34.5386 -2.83919 -3.57124 -1.68422 -0.0706594 -0.892534 -0.344802 -3.53308 
159 -0.805563 6.44911 37.1028 -3.06367 -4.09219 -1.66093 0.129865 -1.34206 -0.48609 -3.53388 
160 3.70815 3.95503 34.5399 -3.30701 -3.12094 -1.67611 -0.339118 -0.507351 0.55513 -3.53307 
161 1.71178 3.06249 35.8321 -3.1703 -3.4396 -1.75074 -0.211544 -0.457527 0.0510795 -3.52961 
162 1.67622 3.08289 38.4086 -3.0234 -3.28232 -1.50315 -0.19756 -0.454897 0.0482376 -3.52977 
163 1.42978 5.23055 37.1128 -2.76922 -3.45068 -1.45571 -0.0561537 -0.893968 -0.35967 -3.53313 
164 3.66145 3.99834 37.1141 -3.20573 -3.0325 -1.44783 -0.320458 -0.521342 0.54003 -3.53313 
165 -0.562369 4.29465 38.4027 -3.42273 -4.13783 -1.77455 0.0982988 -0.894943 -0.353437 -3.53458 
166 -0.612311 4.28957 40.9816 -3.25792 -3.90946 -1.52612 0.0982064 -0.883874 -0.363824 -3.53492 
167 -0.881089 6.4415 39.6796 -2.95028 -3.8799 -1.41445 0.128681 -1.32974 -0.498663 -3.53425 
168 1.36871 5.24801 39.6902 -2.63798 -3.27711 -1.21849 -0.0495519 -0.884334 -0.362323 -3.5333 
169 -0.95601 6.43389 42.2588 -2.77983 -3.62831 -1.17953 0.127445 -1.31213 -0.511178 -3.53461 
170 3.61541 4.04169 39.6913 -3.04305 -2.88997 -1.21087 -0.307938 -0.523904 0.53297 -3.53329 
171 1.64102 3.10324 40.9876 -2.83437 -3.08837 -1.25275 -0.187503 -0.449373 0.0456076 -3.53 
172 1.60609 3.12338 43.5688 -2.61321 -2.86585 -0.997195 -0.178848 -0.447495 0.034883 -3.53027 
173 1.3083 5.26559 42.2698 -2.45192 -3.05971 -0.982673 -0.0480368 -0.870119 -0.367163 -3.53355 
174 3.56997 4.08498 42.2709 -2.82639 -2.70181 -0.976976 -0.299368 -0.524833 0.523102 -3.53354 
175 -0.661842 4.28417 43.5623 -3.05426 -3.66241 -1.28045 0.100242 -0.869948 -0.382096 -3.53523 
176 -0.711127 4.27844 46.1446 -2.82379 -3.39473 -1.01759 0.103596 -0.855322 -0.413689 -3.53549 
177 -1.03038 6.42607 44.8394 -2.55939 -3.34446 -0.962867 0.127529 -1.29154 -0.528893 -3.53496 
178 1.24842 5.28313 44.851 -2.21833 -2.80329 -0.749856 -0.0498726 -0.859799 -0.385709 -3.53386 
179 -1.10458 6.41838 47.4203 -2.296 -3.01705 -0.776405 0.129762 -1.27252 -0.542036 -3.53528 
180 3.52493 4.12813 44.852 -2.5611 -2.47542 -0.751967 -0.292096 -0.533034 0.501843 -3.53383 
181 1.57124 3.14329 46.1516 -2.36458 -2.61739 -0.719022 -0.171216 -0.456854 0.00767525 -3.53054 
182 1.53633 3.16338 48.7364 -2.08954 -2.3615 -0.347703 -0.183216 -0.479886 -0.0323003 -3.53015 
183 1.1886 5.30066 47.4331 -1.94357 -2.5052 -0.518742 -0.0633715 -0.86614 -0.430854 -3.53412 
184 3.48001 4.17121 47.4338 -2.24096 -2.22055 -0.543913 -0.28616 -0.559262 0.457742 -3.53404 
185 -0.760666 4.2734 48.7285 -2.60299 -3.07462 -0.66995 0.0971288 -0.846669 -0.419517 -3.53516 
186 -0.811621 4.26877 51.3169 -1.98843 -2.35105 0.311827 0.0838881 -0.841934 -0.653074 -3.53805 
187 -1.17889 6.41384 50.0002 -2.0573 -2.54163 -0.333468 0.0867591 -1.27782 -0.619773 -3.53573 
188 1.12775 5.31799 50.0156 -1.56925 -2.07903 -0.0212256 -0.110549 -0.945562 -0.597546 -3.53484 
189 -1.25707 6.40546 52.5877 -1.6124 -2.48693 0.643241 0.175792 -1.31624 -0.613057 -3.53282 
190 3.43505 4.21346 50.0156 -1.75904 -1.85302 -0.0391544 -0.309456 -0.668742 0.311611 -3.5349 
191 1.50027 3.18358 51.3264 -1.43163 -1.70133 0.657896 -0.172629 -0.548529 -0.13306 -3.53273 
192 1.46587 3.20964 53.9052 0.0267005 0.95399 -0.795884 0.566306 -0.560984 0.13897 -3.37565 
193 1.06597 5.33731 52.6041 -1.2492 -1.89859 0.441457 -0.236984 -0.801314 -0.410788 -3.52779 
194 3.38747 4.26008 52.6041 -1.41016 -1.71363 0.389796 -0.390659 -0.639422 0.587372 -3.52746 
195 -0.866323 4.2769 53.8949 -0.0508628 -0.206137 -1.18047 0.079378 -1.26166 1.02744 -3.38132 
196 1.3298 4.1174 -56.3442 5.06942 2.90558 1.60241 -1.25473 -0.273891 0.110264 -2.79034 
197 -1.33605 6.40133 55.1665 4.18004 2.79746 1.28996 0.319919 -1.5232 0.197886 -3.26107 
198 1.00488 5.36129 55.1754 5.6421 6.63186 2.70775 0.36987 -0.636456 -0.0326076 -3.15047 
199 1.98371 6.26223 -55.1334 6.93989 9.11552 2.92916 0.134186 -0.847908 -0.525666 -3.02309 
200 3.34328 4.30996 55.1754 5.53065 7.35769 2.86912 0.118701 -0.27862 0.562641 -3.15115 
201 2.87095 2.09325 -56.362 4.04253 6.0065 1.88101 -3.16453 0.252648 0.341793 -2.79939 
202 2.84551 2.1252 -53.8874 0.165019 0.7633 -3.02648 -0.982106 -0.732812 -0.162363 -3.51266 
203 3.53831 4.21674 -55.1525 6.03166 6.27391 1.75935 0.302437 -1.2195 -0.0444733 -3.1433 
204 5.07312 2.13635 -55.1525 6.04997 7.03887 2.00315 0.446064 -0.528119 0.0805382 -3.14511 
205 1.29262 4.16451 -53.8815 0.861258 -0.348239 -3.67507 -0.408872 -0.573879 0.838999 -3.51412 
206 1.24176 4.17585 -51.3147 -1.28701 -1.91115 -0.376377 -0.214921 -0.880498 0.220617 -3.53903 
207 1.90264 6.26187 -52.5941 -0.917886 -1.45674 -0.57296 -0.184161 -1.168 0.820118 -3.52792 
208 3.4607 4.22944 -52.6036 -0.748906 -0.925843 0.0954214 -0.677507 -0.496044 0.19139 -3.53019 
209 1.82403 6.27282 -50.0101 -1.64511 -2.32865 -0.267985 -0.199669 -1.28152 0.428778 -3.53672 
210 5.01221 2.17771 -52.6036 -1.34186 -0.348585 0.0545911 -0.502559 0.0192202 0.991512 -3.52952 
211 2.80522 2.14769 -51.32 -1.10371 -0.9469 -0.112993 -0.278144 -0.333096 0.262132 -3.53414 
212 2.77226 2.17449 -48.7405 -1.97028 -1.83815 -0.546968 -0.291057 -0.226436 0.332815 -3.53088 
213 3.40036 4.25787 -50.02 -1.43206 -1.65438 -0.140511 -0.408629 -0.709574 0.28395 -3.53497 
214 4.971 2.23184 -50.02 -1.84415 -1.27436 -0.114236 -0.296534 0.0200754 0.834025 -3.53501 
215 1.18965 4.18027 -48.7356 -2.17918 -2.75916 -0.791518 -0.179897 -0.850023 0.276002 -3.5364 
216 1.13968 4.18607 -46.1541 -2.63799 -3.19345 -0.97779 -0.162879 -0.833364 0.396069 -3.53604 
217 1.74858 6.27835 -47.4306 -2.10136 -2.83582 -0.68002 -0.212673 -1.24107 0.540034 -3.53588 
218 3.34501 4.28726 -47.4411 -1.89929 -2.21022 -0.564253 -0.300476 -0.640552 0.331638 -3.53414 
219 1.67462 6.28992 -44.8496 -2.47081 -3.19293 -0.866277 -0.198827 -1.24434 0.599538 -3.53534 
220 4.9348 2.28427 -47.4403 -2.32303 -1.7899 -0.541975 -0.211464 0.103803 0.861914 -3.5342 
221 2.74192 2.20156 -46.1594 -2.36552 -2.27007 -0.739754 -0.230206 -0.163263 0.388568 -3.53074 
222 2.7135 2.23002 -43.5776 -2.67804 -2.59333 -0.950339 -0.213493 -0.151374 0.409296 -3.53037 
223 3.29146 4.31926 -44.8605 -2.23493 -2.57538 -0.718858 -0.259164 -0.625953 0.367507 -3.53392 
224 4.90185 2.33718 -44.8595 -2.65813 -2.14519 -0.722974 -0.176514 0.141705 0.89359 -3.53393 
225 1.09048 4.1944 -43.5722 -2.97708 -3.51339 -1.20479 -0.149635 -0.841127 0.422155 -3.53553 
226 1.0412 4.20349 -40.9911 -3.23732 -3.7886 -1.44543 -0.147042 -0.854176 0.429057 -3.53509 
227 1.60085 6.30323 -42.2685 -2.75359 -3.4992 -1.09242 -0.197751 -1.26205 0.615661 -3.53484 
228 3.23884 4.35276 -42.2796 -2.50861 -2.87214 -0.918042 -0.241635 -0.62803 0.385514 -3.5336 
229 1.52663 6.31727 -39.6887 -2.96473 -3.76647 -1.33574 -0.204442 -1.28126 0.619597 -3.53439 
230 4.87043 2.39101 -42.2786 -2.94155 -2.428 -0.928097 -0.16531 0.153717 0.918953 -3.5336 
231 2.68563 2.25926 -40.9965 -2.93435 -2.85514 -1.17994 -0.210438 -0.149194 0.423456 -3.53006 
232 2.65786 2.28912 -38.4169 -3.14821 -3.07035 -1.4217 -0.21502 -0.148393 0.435081 -3.52981 
233 3.18645 4.38736 -39.6996 -2.72622 -3.11246 -1.14124 -0.235896 -0.632907 0.396112 -3.53333 
234 4.8396 2.44583 -39.6987 -3.17865 -2.64637 -1.15141 -0.165593 0.158607 0.940814 -3.53333 
235 0.991529 4.21289 -38.4116 -3.43726 -4.03305 -1.69612 -0.151917 -0.866669 0.430371 -3.53468 
236 0.941427 4.22253 -35.8346 -3.57855 -4.24343 -1.95147 -0.161341 -0.876822 0.425189 -3.53431 
237 1.45176 6.33185 -37.1111 -3.10725 -3.99016 -1.58754 -0.21509 -1.29729 0.614691 -3.53398 
238 3.13404 4.42292 -37.1217 -2.88799 -3.29633 -1.37468 -0.239061 -0.639386 0.398451 -3.53315 
239 1.37632 6.34696 -34.5366 -3.18207 -4.15914 -1.83405 -0.225398 -1.30965 0.59601 -3.53367 
240 4.80906 2.50165 -37.1207 -3.36637 -2.80315 -1.38369 -0.175603 0.15826 0.954833 -3.53314 
241 2.63009 2.31957 -35.8396 -3.31855 -3.23938 -1.66785 -0.226643 -0.150374 0.440958 -3.52964 
242 2.60229 2.35052 -33.2651 -3.4408 -3.36011 -1.90799 -0.245087 -0.158468 0.437238 -3.52955 
243 3.08153 4.45934 -34.5466 -2.99174 -3.42243 -1.60469 -0.250432 -0.650699 0.38731 -3.53306 
244 4.77875 2.55834 -34.5455 -3.49939 -2.90038 -1.61289 -0.195465 0.147729 0.955984 -3.53306 
245 0.890958 4.23241 -33.2606 -3.6606 -4.41078 -2.20001 -0.171916 -0.884871 0.409454 -3.53401 
246 0.840194 4.24245 -30.69 -3.69085 -4.53234 -2.4282 -0.180621 -0.891622 0.38212 -3.5338 
247 1.3004 6.36248 -31.9656 -3.19921 -4.27141 -2.05899 -0.232291 -1.31938 0.561244 -3.53349 
248 3.02881 4.49632 -31.9747 -3.04221 -3.49801 -1.81859 -0.268314 -0.667782 0.361544 -3.53307 
249 1.22408 6.37806 -29.3982 -3.17654 -4.33667 -2.25134 -0.234711 -1.32704 0.51396 -3.53342 
250 4.74848 2.61563 -31.9735 -3.58015 -2.94746 -1.82678 -0.223613 0.124619 0.944153 -3.53306 
251 2.57438 2.38178 -30.694 -3.51638 -3.43677 -2.13086 -0.26857 -0.17329 0.423712 -3.52954 
252 2.54622 2.41314 -28.126 -3.55382 -3.47988 -2.32804 -0.294162 -0.192424 0.403725 -3.52957 
253 2.97572 4.53346 -29.4062 -3.05184 -3.53709 -2.00808 -0.289715 -0.688184 0.325657 -3.53312 
254 4.71797 2.67318 -29.4049 -3.61908 -2.95969 -2.01675 -0.256669 0.0917557 0.923798 -3.5331 
255 0.789172 4.25243 -28.1227 -3.684 -4.61401 -2.62641 -0.185656 -0.89748 0.346359 -3.53368 
256 0.737908 4.26213 -25.5585 -3.65522 -4.66553 -2.79113 -0.186462 -0.902442 0.306815 -3.53362 
257 1.14738 6.39329 -26.8339 -3.1316 -4.36866 -2.4078 -0.232817 -1.33265 0.460289 -3.53342 
258 2.92209 4.57035 -26.8408 -3.03482 -3.55339 -2.16982 -0.311385 -0.708835 0.285661 -3.53318 
259 1.07032 6.40787 -24.2724 -3.07763 -4.37975 -2.53071 -0.227099 -1.33641 0.40567 -3.53347 
260 4.68693 2.73071 -26.8393 -3.62858 -2.95171 -2.17879 -0.290995 0.0541052 0.899916 -3.53316 
261 2.51766 2.44437 -25.5612 -3.56415 -3.50102 -2.49561 -0.319115 -0.212836 0.381264 -3.52963 
262 2.48862 2.47533 -22.999 -3.55731 -3.5096 -2.63352 -0.341589 -0.232319 0.359199 -3.52968 
263 2.86782 4.60673 -24.2781 -3.003 -3.55716 -2.30394 -0.330787 -0.727604 0.246105 -3.53323 
264 4.65512 2.788 -24.2766 -3.61943 -2.93446 -2.31266 -0.323919 0.0160227 0.876084 -3.53321 
265 0.68641 4.27136 -22.997 -3.61633 -4.69638 -2.92361 -0.18327 -0.906472 0.26732 -3.5336 
266 0.634694 4.28002 -20.4376 -3.57519 -4.71409 -3.02764 -0.176678 -0.909674 0.230207 -3.5336 
267 0.99292 6.42158 -21.7131 -3.02324 -4.37917 -2.62505 -0.218116 -1.3388 0.353623 -3.53353 
268 2.81287 4.64242 -21.7178 -2.96487 -3.55512 -2.41261 -0.346469 -0.743509 0.209509 -3.53327 
269 0.915218 6.43428 -19.1556 -2.9733 -4.37307 -2.69632 -0.206476 -1.34044 0.305854 -3.5336 
270 4.62242 2.84494 -21.7161 -3.59968 -2.915 -2.42048 -0.353957 -0.0197223 0.854304 -3.53325 
271 2.45905 2.50594 -20.439 -3.54082 -3.51211 -2.74417 -0.360691 -0.249727 0.339061 -3.52972 
272 2.42895 2.53615 -17.8809 -3.51984 -3.51252 -2.83117 -0.376219 -0.264728 0.321403 -3.52975 
273 2.75724 4.67732 -19.1593 -2.92584 -3.55132 -2.49895 -0.357929 -0.756423 0.176842 -3.5333 
274 4.58878 2.90144 -19.1576 -3.57486 -2.89742 -2.50559 -0.380535 -0.0518471 0.835421 -3.53329 
275 0.582783 4.28803 -17.88 -3.53643 -4.72399 -3.10789 -0.167393 -0.912293 0.19651 -3.53361 
276 0.5307 4.29535 -15.3237 -3.50236 -4.72958 -3.16885 -0.156102 -0.914638 0.166404 -3.53362 
277 0.837242 6.44591 -16.5995 -2.93005 -4.3652 -2.74956 -0.192813 -1.3419 0.262811 -3.53366 
278 2.70095 4.7114 -16.6024 -2.88902 -3.54798 -2.56639 -0.365297 -0.766713 0.148131 -3.53332 
279 0.759016 6.45646 -14.0444 -2.894 -4.35767 -2.78888 -0.177748 -1.34361 0.22422 -3.53371 
280 4.55419 2.95747 -16.6007 -3.54848 -2.88371 -2.57167 -0.403641 -0.0801104 0.819556 -3.53331 
281 2.39834 2.56594 -15.3243 -3.4976 -3.51307 -2.8984 -0.388387 -0.277491 0.306199 -3.52978 
282 2.36724 2.59529 -12.7688 -3.47595 -3.51481 -2.94946 -0.397617 -0.288425 0.29314 -3.5298 
283 2.64405 4.74465 -14.0466 -2.85589 -3.54617 -2.61824 -0.369051 -0.774954 0.122925 -3.53334 
284 4.51868 3.01301 -14.0449 -3.52256 -2.87458 -2.62216 -0.423565 -0.104869 0.806436 -3.53333 
285 0.478461 4.30198 -12.7685 -3.4738 -4.73298 -3.21446 -0.143414 -0.917005 0.139599 -3.53363 
286 0.426078 4.3079 -10.2141 -3.45052 -4.7354 -3.24791 -0.129841 -0.919596 0.115596 -3.53363 
287 0.680554 6.46591 -11.4902 -2.86452 -4.35151 -2.81752 -0.161827 -1.34582 0.189471 -3.53374 
288 2.58656 4.77707 -11.4918 -2.82683 -3.54625 -2.65742 -0.369808 -0.781727 0.100583 -3.53335 
289 0.601862 6.47429 -8.93654 -2.84033 -4.34708 -2.83791 -0.145479 -1.34854 0.157839 -3.53377 
290 4.48228 3.06806 -11.4901 -3.49811 -2.86997 -2.66006 -0.440735 -0.126742 0.7956 -3.53334 
291 2.33566 2.62422 -10.2141 -3.45574 -3.51809 -2.98748 -0.404414 -0.297996 0.281808 -3.52981 
292 2.30364 2.65272 -7.66007 -3.43719 -3.52284 -3.01499 -0.409287 -0.306597 0.271783 -3.52982 
293 2.5285 4.80868 -8.93767 -2.80155 -3.54816 -2.68639 -0.368193 -0.787489 0.0804467 -3.53335 
294 4.44502 3.12261 -8.93598 -3.47548 -2.86942 -2.68779 -0.455612 -0.14639 0.786527 -3.53335 
295 0.373555 4.31314 -7.6603 -3.43171 -4.73742 -3.27169 -0.1158 -0.92243 0.0938351 -3.53364 
296 0.320893 4.31769 -5.10689 -3.41628 -4.73926 -3.28764 -0.101602 -0.925301 0.0737455 -3.53364 
297 0.522946 6.4816 -6.38332 -2.81994 -4.34435 -2.85178 -0.128979 -1.35149 0.128595 -3.53379 
298 2.46992 4.83948 -6.38405 -2.77933 -3.55169 -2.70705 -0.364741 -0.792496 0.0619258 -3.53335 
299 0.443825 6.48787 -3.8304 -2.8021 -4.34313 -2.86026 -0.112423 -1.35415 0.101043 -3.5338 
300 4.40693 3.17667 -6.38236 -3.45455 -2.87235 -2.70724 -0.468607 -0.164384 0.778712 -3.53335 
301 2.27117 2.6808 -5.10649 -3.42011 -3.52884 -3.03393 -0.412683 -0.314487 0.262691 -3.52983 
302 2.23828 2.70846 -2.5532 -3.40414 -3.5359 -3.0456 -0.414914 -0.321778 0.254219 -3.52983 
303 2.41081 4.86949 -3.83076 -2.75943 -3.55662 -2.72078 -0.359818 -0.796803 0.0445334 -3.53336 
304 4.36803 3.23021 -3.82907 -3.43505 -2.87825 -2.71972 -0.480008 -0.181159 0.771707 -3.53336 
305 0.268102 4.32157 -2.55376 -3.40324 -4.74095 -3.29692 -0.0874247 -0.927784 0.054765 -3.53364 
306 0.364534 6.4931 -1.27767 -2.7862 -4.34321 -2.864 -0.095734 -1.35592 0.0745305 -3.53381 
307 2.35123 4.8987 -1.27769 -2.74128 -3.56287 -2.72839 -0.353557 -0.800317 0.0278821 -3.53336 
308 4.32835 3.28324 -1.27599 -3.41671 -2.88678 -2.72607 -0.489921 -0.197011 0.765139 -3.53336 
309 2.43623 7.09098 -0.00152749 -2.2162 -3.36004 -2.40121 -0.317292 -1.20581 -0.187896 -3.5329 
310 0.434477 8.66815 -0.00180021 -2.24761 -4.016 -2.49636 -0.0994418 -1.74227 0.0832433 -3.53357 