ITEM: TIMESTEP
934
ITEM: NUMBER OF ATOMS
37664
ITEM: BOX BOUNDS ff ff ff
-100 100
-100 100
-156.15 156.15
ITEM: ATOMS id x y z v_peratom_sxx v_peratom_syy v_peratom_szz v_peratom_sxy v_peratom_sxz v_peratom_syz c_atomPE 
1 -0.00369474 -0.00219444 0.00105549 -5.17903 -5.17171 -9.53858 0.000304182 -0.0114465 -0.0278265 -3.51528 
2 -0.0039983 -0.00207756 2.55431 -5.17834 -5.17094 -9.53766 -0.00012366 -0.0136624 -0.0266599 -3.51527 
3 -0.0043297 -0.00190575 5.10762 -5.17314 -5.16605 -9.527 -0.00080844 -0.014 -0.0254303 -3.51532 
4 -0.00467512 -0.00168385 7.66113 -5.16261 -5.15643 -9.50511 -0.00173683 -0.0119198 -0.0242808 -3.51541 
5 -0.00500955 -0.00142653 10.215 -5.14579 -5.14122 -9.46987 -0.0028151 -0.00729429 -0.0232101 -3.51557 
6 -0.00530011 -0.00115422 12.7694 -5.1216 -5.11927 -9.41864 -0.0038875 -0.000494247 -0.0220687 -3.5158 
7 -0.00551242 -0.000887335 15.3246 -5.08873 -5.08903 -9.34823 -0.00478587 0.00768698 -0.0206398 -3.51612 
8 -0.00561777 -0.000641475 17.8809 -5.04534 -5.04831 -9.25477 -0.00538219 0.0162384 -0.018749 -3.51655 
9 -0.0055987 -0.000425204 20.4386 -4.98874 -4.99409 -9.13359 -0.00561946 0.0241705 -0.0163476 -3.5171 
10 -0.00545149 -0.000240574 22.998 -4.91505 -4.92226 -8.97923 -0.00551475 0.0307048 -0.0135403 -3.5178 
11 -0.00518544 -8.54764e-05 25.5597 -4.81901 -4.82742 -8.78605 -0.00514193 0.0353771 -0.0105633 -3.51866 
12 -0.00481961 4.34173e-05 28.124 -4.69423 -4.70318 -8.54993 -0.00460443 0.0380561 -0.00772604 -3.51969 
13 -0.0043782 0.00014833 30.6914 -4.53474 -4.54366 -8.2713 -0.00400681 0.0388972 -0.00533178 -3.52089 
14 -0.00388556 0.000229423 33.262 -4.3388 -4.34727 -7.95891 -0.00343192 0.0382607 -0.00359728 -3.5222 
15 -0.00336196 0.000285202 35.8358 -4.11412 -4.1219 -7.63026 -0.00292912 0.036615 -0.00260178 -3.52347 
16 -0.00282116 0.000313421 38.4125 -3.8767 -3.88365 -7.30372 -0.00251403 0.0344368 -0.00229282 -3.52458 
17 -0.00226927 0.000311438 40.9917 -3.6381 -3.64419 -6.98575 -0.00217499 0.0321386 -0.00254665 -3.52548 
18 -0.00170238 0.000276057 43.5731 -3.39929 -3.4045 -6.66359 -0.00187721 0.0301114 -0.00322249 -3.5262 
19 -0.00110251 0.00020311 46.1569 -3.13508 -3.13929 -6.30047 -0.00154996 0.0287299 -0.00417036 -3.52695 
20 -0.000440266 8.41951e-05 48.7435 -2.75188 -2.75413 -5.86106 -0.00086064 0.0278107 -0.00533402 -3.52782 
21 5.95933e-07 -4.11185e-08 51.3317 -1.92305 -1.92289 -4.91976 8.02098e-05 -0.00140392 0.000264718 -3.53203 
22 4.01304e-07 -1.42881e-06 53.9138 -0.851919 -0.851928 -8.91778 7.68322e-07 -2.96615e-05 -7.14113e-05 -3.48169 
23 8.71386e-07 -1.98378e-06 56.3885 1.68559 1.68559 1.87686 -1.62568e-05 2.47708e-05 -1.6422e-07 -2.55581 
24 -1.23087e-07 -1.12453e-06 -53.8876 -2.60693 -2.60695 -6.54959 -1.85924e-05 1.03406e-05 -3.27578e-05 -3.40183 
25 1.02659e-07 -1.55837e-06 -51.3239 -2.07915 -2.07934 -5.57948 -0.000272234 0.00065966 0.00147085 -3.52873 
26 -0.000167926 -0.000418442 -48.7462 -2.6946 -2.69192 -6.14768 0.00357659 -0.0106552 -0.0261365 -3.5264 
27 -0.000391065 -0.00100762 -46.1646 -3.02177 -3.017 -6.34772 0.00632586 -0.00881373 -0.0244448 -3.52678 
28 -0.000554405 -0.00145673 -43.5822 -3.30346 -3.29684 -6.60813 0.00693448 -0.00540779 -0.0231878 -3.52635 
29 -0.000660162 -0.0017999 -41.0007 -3.55919 -3.55052 -6.8966 0.00684067 -0.00165063 -0.0223401 -3.52574 
30 -0.000727916 -0.00205642 -38.421 -3.80981 -3.79908 -7.20554 0.00626841 0.00212662 -0.0217356 -3.52491 
31 -0.000780177 -0.0022381 -35.8434 -4.05654 -4.044 -7.53089 0.00533638 0.00558206 -0.021289 -3.52384 
32 -0.00084003 -0.00235521 -33.2686 -4.28992 -4.27606 -7.86146 0.00418226 0.00834983 -0.0210235 -3.52261 
33 -0.000927917 -0.00241941 -30.6969 -4.49686 -4.48234 -8.17961 0.00297868 0.0101503 -0.0210175 -3.52132 
34 -0.00105772 -0.00244366 -28.1284 -4.6688 -4.65433 -8.46818 0.00190051 0.0108903 -0.0213434 -3.5201 
35 -0.00123407 -0.0024407 -25.5629 -4.80478 -4.79097 -8.71661 0.00107766 0.0106952 -0.0220186 -3.51901 
36 -0.00145194 -0.00242148 -23.0002 -4.90885 -4.89615 -8.92196 0.0005628 0.00984731 -0.0229895 -3.5181 
37 -0.00169898 -0.00239449 -20.4399 -4.98693 -4.97555 -9.08664 0.00032891 0.00865615 -0.0241548 -3.51736 
38 -0.00195958 -0.00236607 -17.8814 -5.04484 -5.03477 -9.21571 0.000295115 0.00732335 -0.0254021 -3.51678 
39 -0.00221957 -0.00234111 -15.3245 -5.08749 -5.07858 -9.315 0.00036599 0.00586539 -0.026628 -3.51632 
40 -0.0024699 -0.00232299 -12.7687 -5.1187 -5.11072 -9.39002 0.00046516 0.00412983 -0.0277335 -3.51597 
41 -0.00270847 -0.00231247 -10.2138 -5.14136 -5.134 -9.44558 0.000549261 0.0018977 -0.0286075 -3.51572 
42 -0.00293989 -0.00230584 -7.65953 -5.15756 -5.15053 -9.48564 0.000599867 -0.000973294 -0.0291253 -3.51553 
43 -0.00317374 -0.0022938 -5.10574 -5.16873 -5.16177 -9.51324 0.000601961 -0.00442134 -0.0291776 -3.5154 
44 -0.00342181 -0.00226207 -2.55225 -5.17578 -5.16867 -9.5305 0.000522788 -0.00811151 -0.0287225 -3.51532 
45 0.0924206 2.15788 1.27692 -4.05621 -5.14028 -3.83749 -0.0511151 -0.452212 0.00371594 -3.52907 
46 0.0657431 2.15903 3.83011 -4.05002 -5.13944 -3.83168 -0.0397792 -0.45242 -0.00544862 -3.52908 
47 0.0390632 2.15988 6.38343 -4.04454 -5.13626 -3.81753 -0.0284091 -0.451014 -0.015035 -3.5291 
48 0.012433 2.16043 8.93703 -4.04054 -5.13054 -3.79378 -0.0167736 -0.448054 -0.0252954 -3.52913 
49 -0.0140922 2.16065 11.4911 -4.03902 -5.12189 -3.75881 -0.00470758 -0.443937 -0.0364118 -3.52918 
50 -0.0404631 2.16053 14.0458 -4.04094 -5.10958 -3.71054 0.00776748 -0.439269 -0.0485664 -3.52922 
51 -0.0666441 2.16004 16.6015 -4.04677 -5.09238 -3.64635 0.0203894 -0.43467 -0.0620108 -3.52928 
52 -0.0926174 2.15918 19.1583 -4.05619 -5.06837 -3.56291 0.0326722 -0.430628 -0.0770805 -3.52935 
53 -0.118383 2.15796 21.7168 -4.06771 -5.03463 -3.45614 0.0439674 -0.427414 -0.0941176 -3.52943 
54 -0.143956 2.15639 24.2771 -4.07812 -4.98691 -3.32143 0.0535463 -0.425076 -0.113256 -3.52953 
55 -0.169363 2.15452 26.8399 -4.08161 -4.91923 -3.15439 0.0607087 -0.423468 -0.134016 -3.52967 
56 -0.194632 2.15241 29.4055 -4.06871 -4.82386 -2.95256 0.0649583 -0.422298 -0.154745 -3.52986 
57 -0.219786 2.15015 31.9742 -4.0261 -4.69269 -2.71804 0.066288 -0.421163 -0.172305 -3.53012 
58 -0.24483 2.14783 34.5463 -3.93995 -4.5213 -2.4598 0.0654924 -0.419563 -0.183201 -3.53047 
59 -0.269741 2.1455 37.1216 -3.80466 -4.31509 -2.19206 0.0641268 -0.416913 -0.18715 -3.53087 
60 -0.294479 2.1431 39.6995 -3.62854 -4.08874 -1.92631 0.0637584 -0.412741 -0.189191 -3.53128 
61 -0.319018 2.14052 42.2798 -3.42349 -3.85299 -1.66284 0.0651026 -0.407143 -0.195418 -3.53164 
62 -0.343394 2.13769 44.8621 -3.19601 -3.60468 -1.3903 0.0674049 -0.400687 -0.212405 -3.53193 
63 -0.367768 2.13484 47.4464 -2.91615 -3.29372 -1.10606 0.0673333 -0.395797 -0.23187 -3.53223 
64 -0.392512 2.13371 50.032 -2.43433 -2.80059 -0.495116 0.06055 -0.414679 -0.20119 -3.53323 
65 -0.418483 2.1304 52.6263 -1.76578 -2.00551 -0.561405 0.0455026 -0.308929 -0.730007 -3.52457 
66 -0.44812 2.14653 55.1778 6.9766 7.73843 2.43089 0.0330178 -0.597321 1.77022 -3.02528 
67 0.649859 2.05055 -55.162 1.38945 0.842393 -0.678349 -0.188252 -0.0991977 1.20762 -3.26036 
68 0.633027 2.08274 -52.6122 -1.11196 -2.21867 -0.457719 -0.374492 -0.489286 -0.161477 -3.53566 
69 0.607028 2.08678 -50.0319 -2.00279 -2.55489 -0.871602 -0.170218 -0.429447 0.0813414 -3.53399 
70 0.581331 2.08835 -47.4532 -2.63786 -3.07128 -1.20669 -0.127076 -0.403124 0.155278 -3.5329 
71 0.556535 2.09191 -44.8711 -3.05926 -3.44058 -1.36665 -0.106797 -0.397493 0.198764 -3.53225 
72 0.531925 2.09624 -42.2892 -3.35824 -3.72607 -1.59559 -0.0983122 -0.401228 0.210389 -3.53183 
73 0.507205 2.10078 -39.7085 -3.60197 -3.98206 -1.84626 -0.0971783 -0.406594 0.216354 -3.53141 
74 0.482281 2.10541 -37.1298 -3.80431 -4.22009 -2.10992 -0.101633 -0.411522 0.219882 -3.53097 
75 0.457147 2.11012 -34.5537 -3.96209 -4.43511 -2.37944 -0.110025 -0.415643 0.218635 -3.53055 
76 0.431836 2.11492 -31.9806 -4.07101 -4.6173 -2.64271 -0.12002 -0.419265 0.209905 -3.53018 
77 0.406373 2.11974 -29.4108 -4.1344 -4.76144 -2.88603 -0.129084 -0.42268 0.193684 -3.52988 
78 0.380774 2.1245 -26.8442 -4.16264 -4.86965 -3.09936 -0.135361 -0.425921 0.172557 -3.52965 
79 0.355045 2.12909 -24.2805 -4.16766 -4.94829 -3.27846 -0.138038 -0.428895 0.14959 -3.52948 
80 0.329193 2.13344 -21.7193 -4.15938 -5.00457 -3.42388 -0.137129 -0.431531 0.127046 -3.52936 
81 0.30323 2.13749 -19.1602 -4.14481 -5.04473 -3.53899 -0.133091 -0.433846 0.106176 -3.52927 
82 0.277169 2.14121 -16.6028 -4.12839 -5.07358 -3.62825 -0.12653 -0.435951 0.0874667 -3.52921 
83 0.251022 2.1446 -14.0466 -4.11269 -5.09452 -3.6962 -0.118041 -0.438024 0.0709534 -3.52916 
84 0.224795 2.14763 -11.4914 -4.09892 -5.10991 -3.74693 -0.108144 -0.440247 0.0564534 -3.52912 
85 0.198487 2.15033 -8.937 -4.08738 -5.12127 -3.78389 -0.0972885 -0.442739 0.043702 -3.5291 
86 0.172096 2.15269 -6.3831 -4.07786 -5.12957 -3.80982 -0.085866 -0.445476 0.0324038 -3.52908 
87 0.145617 2.15472 -3.82957 -4.06985 -5.13536 -3.8267 -0.0742128 -0.448249 0.0222302 -3.52907 
88 0.119054 2.15645 -1.27627 -4.06277 -5.13891 -3.83576 -0.0625849 -0.450662 0.0128057 -3.52906 
89 0.215389 4.32455 -0.000175734 -3.3966 -4.74658 -3.30055 -0.0738687 -0.932497 0.0380868 -3.53364 
90 0.285194 6.49698 1.27573 -2.77649 -4.34856 -2.86381 -0.0792318 -1.36025 0.04898 -3.53381 
91 2.20515 2.73546 0.00042129 -3.39183 -3.54829 -3.05204 -0.416421 -0.329071 0.248121 -3.52983 
92 2.17132 2.76218 2.55357 -3.37635 -3.5568 -3.05084 -0.416394 -0.33535 0.240202 -3.52983 
93 2.29128 4.92679 1.27596 -2.72838 -3.57409 -2.73148 -0.346217 -0.805362 0.0122981 -3.53335 
94 4.28799 3.33543 1.2776 -3.40182 -2.90192 -2.7283 -0.498822 -0.21289 0.760418 -3.53335 
95 0.162259 4.327 2.55279 -3.38565 -4.74713 -3.29785 -0.0593643 -0.932774 0.0199388 -3.53365 
96 0.109127 4.3288 5.10582 -3.37723 -4.74731 -3.28886 -0.0444855 -0.931214 0.00145161 -3.53366 
97 0.205575 6.50006 3.82842 -2.76424 -4.35005 -2.85835 -0.0613346 -1.35888 0.0229899 -3.53382 
98 2.23072 4.9543 3.829 -2.71247 -3.58248 -2.72733 -0.336773 -0.806855 -0.00371925 -3.53335 
99 0.126051 6.50211 6.38123 -2.75729 -4.35281 -2.84802 -0.0426856 -1.3561 -0.00358241 -3.53383 
100 4.24672 3.3873 3.83068 -3.38468 -2.91481 -2.7231 -0.505308 -0.227576 0.753864 -3.53336 
101 2.13714 2.78844 5.1068 -3.36155 -3.56649 -3.04298 -0.414851 -0.340749 0.232353 -3.52983 
102 2.10265 2.81421 7.66027 -3.34812 -3.57769 -3.02759 -0.411271 -0.345401 0.224398 -3.52983 
103 2.16985 4.98096 6.38219 -2.69958 -3.59252 -2.71674 -0.325191 -0.807292 -0.0198363 -3.53336 
104 4.20477 3.43857 6.38393 -3.36921 -2.93045 -2.71165 -0.509442 -0.241776 0.747069 -3.53336 
105 0.0560759 4.32994 7.65905 -3.37292 -4.74727 -3.27292 -0.0289752 -0.928074 -0.0177719 -3.53368 
106 0.00318758 4.3304 10.2126 -3.37449 -4.74712 -3.24909 -0.0127209 -0.923965 -0.0381085 -3.53369 
107 0.0467253 6.50312 8.93431 -2.75771 -4.35719 -2.83236 -0.0233149 -1.35266 -0.0312712 -3.53383 
108 2.10876 5.00674 8.93567 -2.69118 -3.60438 -2.69889 -0.311151 -0.80714 -0.0365109 -3.53336 
109 -0.0323227 6.50306 11.4878 -2.76706 -4.36344 -2.81064 -0.00344976 -1.34944 -0.0606633 -3.53382 
110 4.16221 3.48918 8.93746 -3.35628 -2.94916 -2.69312 -0.510738 -0.255866 0.739853 -3.53336 
111 2.0679 2.83947 10.2141 -3.337 -3.59055 -3.00337 -0.405149 -0.349659 0.216097 -3.52983 
112 2.03294 2.86418 12.7685 -3.32916 -3.60495 -2.96865 -0.396114 -0.354079 0.207098 -3.52982 
113 2.04751 5.0316 11.4896 -2.68868 -3.61802 -2.67267 -0.294504 -0.807091 -0.0543517 -3.53336 
114 4.11906 3.53911 11.4914 -3.34681 -2.97116 -2.6663 -0.508774 -0.270402 0.731955 -3.53336 
115 -0.0494735 4.33015 12.7668 -3.38345 -4.74675 -3.21607 0.00416509 -0.919638 -0.0599791 -3.5337 
116 -0.101866 4.32918 15.3217 -3.40072 -4.74571 -3.1721 0.0213465 -0.91575 -0.0838959 -3.53371 
117 -0.111045 6.50192 14.0419 -2.78624 -4.37158 -2.78172 0.0165326 -1.34713 -0.0924357 -3.5338 
118 1.98613 5.05551 14.0442 -2.69318 -3.63316 -2.6366 -0.275271 -0.807933 -0.0741173 -3.53336 
119 -0.189425 6.49966 16.5968 -2.81547 -4.38131 -2.74385 0.0361812 -1.34615 -0.127358 -3.53376 
120 4.07538 3.58832 14.046 -3.34156 -2.99645 -2.62961 -0.503227 -0.286098 0.722975 -3.53336 
121 1.9978 2.88833 15.3237 -3.32532 -3.62038 -2.92133 -0.38397 -0.359361 0.196917 -3.52981 
122 1.9625 2.91188 17.8799 -3.3257 -3.63588 -2.85883 -0.368667 -0.366245 0.184952 -3.52979 
123 1.92465 5.07845 16.5996 -2.70526 -3.64917 -2.58883 -0.253583 -0.810432 -0.0966755 -3.53335 
124 4.03116 3.63678 16.6015 -3.34099 -3.02482 -2.58104 -0.493857 -0.303784 0.712345 -3.53336 
125 -0.153971 4.32747 17.8776 -3.42647 -4.74302 -3.11473 0.0383211 -0.912715 -0.11046 -3.53371 
126 -0.205793 4.32504 20.4347 -3.46007 -4.73695 -3.04066 0.0544924 -0.910649 -0.140278 -3.5337 
127 -0.267464 6.49629 19.1527 -2.85439 -4.39178 -2.69447 0.055044 -1.34654 -0.166242 -3.53371 
128 1.86307 5.10038 19.1561 -2.72495 -3.66505 -2.52689 -0.229619 -0.815243 -0.122924 -3.53334 
129 -0.345178 6.49181 21.7099 -2.902 -4.40132 -2.63002 0.0727194 -1.34798 -0.209791 -3.53364 
130 3.9864 3.68447 19.158 -3.34506 -3.05566 -2.51816 -0.480476 -0.324323 0.699341 -3.53334 
131 1.92703 2.93483 20.4374 -3.32975 -3.64991 -2.77805 -0.350259 -0.375406 0.170547 -3.52976 
132 1.8914 2.95717 22.9967 -3.33583 -3.66002 -2.67539 -0.328896 -0.387331 0.153128 -3.52973 
133 1.80138 5.1213 21.7141 -2.75153 -3.67917 -2.44777 -0.203582 -0.822867 -0.153642 -3.53331 
134 3.94111 3.73134 21.716 -3.35302 -3.08786 -2.43808 -0.462969 -0.34851 0.683148 -3.53332 
135 -0.257347 4.3219 22.9936 -3.49975 -4.72466 -2.94568 0.0692227 -0.909397 -0.173757 -3.5337 
136 -0.30866 4.31809 25.5544 -3.54202 -4.70161 -2.82488 0.0818537 -0.908628 -0.210714 -3.5337 
137 -0.422582 6.48626 24.2687 -2.95643 -4.40695 -2.54579 0.0888667 -1.34987 -0.258294 -3.53357 
138 1.73956 5.14119 24.2738 -2.78329 -3.689 -2.34792 -0.175762 -0.833594 -0.189221 -3.53328 
139 -0.499692 6.47971 26.8296 -3.01415 -4.40367 -2.436 0.10316 -1.35147 -0.311074 -3.53351 
140 3.89527 3.77738 24.2756 -3.36313 -3.11933 -2.33756 -0.441394 -0.37687 0.663031 -3.53329 
141 1.85559 2.97892 25.558 -3.34056 -3.66236 -2.54701 -0.304917 -0.402103 0.132485 -3.52968 
142 1.81963 3.00011 28.1218 -3.33793 -3.65093 -2.38961 -0.279071 -0.41901 0.109277 -3.52962 
143 1.67762 5.16011 26.8357 -2.81683 -3.69052 -2.22367 -0.146732 -0.847353 -0.22918 -3.53323 
144 3.84892 3.8226 26.8375 -3.37197 -3.14638 -2.21321 -0.416217 -0.409266 0.638686 -3.53324 
145 -0.35976 4.31371 28.1177 -3.58049 -4.66098 -2.67331 0.0917206 -0.907952 -0.249747 -3.53373 
146 -0.410677 4.3089 30.684 -3.60428 -4.59321 -2.48763 0.0982365 -0.906971 -0.287537 -3.53381 
147 -0.576521 6.47235 29.393 -3.06861 -4.38349 -2.29444 0.115171 -1.35208 -0.365687 -3.53348 
148 1.61556 5.17815 29.4002 -2.84585 -3.67758 -2.07184 -0.117664 -0.863336 -0.271391 -3.53318 
149 -0.653081 6.46443 31.9595 -3.10832 -4.33453 -2.11634 0.124241 -1.3512 -0.417175 -3.5335 
150 3.80213 3.86706 29.4019 -3.37343 -3.16272 -2.06192 -0.388668 -0.44422 0.610872 -3.53318 
151 1.78357 3.02085 30.6886 -3.31821 -3.61692 -2.20165 -0.252838 -0.435996 0.0857646 -3.52957 
152 1.74753 3.04133 33.2586 -3.26772 -3.54917 -1.98531 -0.228593 -0.449395 0.0661969 -3.52956 
153 1.55347 5.19556 31.9678 -2.85952 -3.64116 -1.89094 -0.0906568 -0.879305 -0.31122 -3.53312 
154 3.75508 3.91088 31.9693 -3.35728 -3.15832 -1.88186 -0.361046 -0.478068 0.582273 -3.53311 
155 -0.461422 4.30389 33.2536 -3.5972 -4.48693 -2.26899 0.10117 -0.905147 -0.318893 -3.53397 
156 -0.511968 4.2989 35.8266 -3.54118 -4.33319 -2.0261 0.101112 -0.901511 -0.339231 -3.53423 
157 -0.729367 6.45635 34.5294 -3.11538 -4.24127 -1.90199 0.129563 -1.34826 -0.458435 -3.53363 
158 1.4915 5.21268 34.5386 -2.84141 -3.56918 -1.68271 -0.0686421 -0.890939 -0.341601 -3.53309 
159 -0.805318 6.44849 37.103 -3.06826 -4.08899 -1.66157 0.130852 -1.34191 -0.483739 -3.53389 
160 3.70805 3.95433 34.54 -3.30814 -3.11917 -1.67421 -0.336534 -0.504881 0.557896 -3.53308 
161 1.71169 3.06174 35.832 -3.17223 -3.43763 -1.74783 -0.208995 -0.45523 0.0551563 -3.52962 
162 1.67619 3.08219 38.4085 -3.02594 -3.28049 -1.50001 -0.195147 -0.453007 0.0523297 -3.52978 
163 1.42988 5.2299 37.1129 -2.77231 -3.44888 -1.45406 -0.054277 -0.892873 -0.356514 -3.53314 
164 3.66142 3.99768 37.1141 -3.20765 -3.03094 -1.44565 -0.317925 -0.519155 0.542948 -3.53313 
165 -0.56224 4.29398 38.4028 -3.42713 -4.13434 -1.77418 0.0997523 -0.894805 -0.350026 -3.53458 
166 -0.612148 4.28897 40.9816 -3.26247 -3.90644 -1.52568 0.0993366 -0.884426 -0.36022 -3.53492 
167 -0.880809 6.44093 39.6798 -2.95515 -3.87731 -1.41506 0.129382 -1.33034 -0.496123 -3.53425 
168 1.36885 5.24742 39.6902 -2.64154 -3.27557 -1.21687 -0.0479235 -0.883741 -0.359144 -3.53331 
169 -0.955735 6.4334 42.259 -2.78439 -3.62638 -1.1803 0.127886 -1.31343 -0.508306 -3.53461 
170 3.61542 4.04109 39.6913 -3.04545 -2.88859 -1.20857 -0.305613 -0.522016 0.536084 -3.5333 
171 1.64104 3.10262 40.9876 -2.83716 -3.08668 -1.24961 -0.185355 -0.447892 0.0497777 -3.53 
172 1.60614 3.12288 43.5687 -2.61583 -2.86435 -0.994344 -0.177085 -0.446363 0.039263 -3.53027 
173 1.30846 5.26509 42.2698 -2.45547 -3.05847 -0.98129 -0.0467437 -0.869967 -0.363841 -3.53355 
174 3.57001 4.08447 42.2709 -2.82888 -2.7006 -0.974758 -0.297404 -0.523206 0.526486 -3.53354 
175 -0.661676 4.28369 43.5624 -3.05836 -3.66003 -1.28019 0.101047 -0.871174 -0.378153 -3.53523 
176 -0.710993 4.27811 46.1447 -2.82678 -3.3934 -1.01799 0.104118 -0.85723 -0.409095 -3.53549 
177 -1.03015 6.42571 44.8395 -2.56307 -3.34342 -0.964227 0.127789 -1.29347 -0.525461 -3.53495 
178 1.24856 5.28277 44.851 -2.22139 -2.80255 -0.748892 -0.0489712 -0.859978 -0.382039 -3.53386 
179 -1.10443 6.41817 47.4204 -2.29845 -3.01767 -0.779255 0.13 -1.27508 -0.537609 -3.53528 
180 3.52497 4.12776 44.852 -2.5633 -2.47452 -0.749995 -0.290641 -0.531588 0.505639 -3.53383 
181 1.57129 3.14295 46.1516 -2.36653 -2.61632 -0.71673 -0.169952 -0.455918 0.0126051 -3.53054 
182 1.53636 3.16327 48.7364 -2.09017 -2.36099 -0.345997 -0.182728 -0.478799 -0.0259166 -3.53015 
183 1.1887 5.30046 47.4331 -1.94583 -2.5056 -0.517997 -0.0628624 -0.866553 -0.426577 -3.53411 
184 3.48005 4.171 47.4338 -2.24251 -2.22061 -0.541906 -0.285319 -0.557939 0.462275 -3.53403 
185 -0.760609 4.27328 48.7285 -2.60408 -3.07515 -0.672047 0.097458 -0.849644 -0.41323 -3.53515 
186 -0.811621 4.26877 51.3169 -1.98848 -2.35115 0.31051 0.0838814 -0.841709 -0.653437 -3.53805 
187 -1.17889 6.41384 50.0002 -2.05966 -2.54263 -0.336538 0.0873606 -1.28002 -0.616725 -3.53572 
188 1.12775 5.31799 50.0156 -1.56908 -2.0788 -0.0206278 -0.110957 -0.945821 -0.595126 -3.53485 
189 -1.25707 6.40546 52.5877 -1.61234 -2.48689 0.643301 0.17576 -1.31617 -0.613141 -3.53282 
190 3.43505 4.21346 50.0156 -1.75824 -1.85272 -0.0377691 -0.309221 -0.668241 0.314309 -3.53491 
191 1.50027 3.18358 51.3264 -1.43157 -1.70132 0.658617 -0.172625 -0.548366 -0.13336 -3.53273 
192 1.46587 3.20964 53.9052 0.026701 0.953992 -0.795872 0.566307 -0.560985 0.138969 -3.37565 
193 1.06597 5.33731 52.6041 -1.24922 -1.89855 0.441463 -0.236973 -0.801324 -0.41082 -3.52779 
194 3.38747 4.26008 52.6041 -1.41016 -1.71357 0.389813 -0.390656 -0.639442 0.587326 -3.52746 
195 -0.866323 4.2769 53.8949 -0.0508678 -0.206141 -1.18049 0.0793789 -1.26166 1.02744 -3.38132 
196 1.3298 4.1174 -56.3442 5.06942 2.90559 1.60242 -1.25473 -0.273892 0.110265 -2.79034 
197 -1.33605 6.40133 55.1665 4.18004 2.79746 1.28995 0.31992 -1.5232 0.197886 -3.26107 
198 1.00488 5.36129 55.1754 5.6421 6.63186 2.70775 0.369869 -0.636457 -0.0326089 -3.15047 
199 1.98371 6.26223 -55.1334 6.93989 9.11553 2.92918 0.134186 -0.847908 -0.525659 -3.02309 
200 3.34328 4.30996 55.1754 5.53065 7.35769 2.86912 0.118702 -0.278621 0.562641 -3.15115 
201 2.87095 2.09325 -56.362 4.04253 6.0065 1.88101 -3.16453 0.252647 0.341793 -2.79939 
202 2.84551 2.1252 -53.8874 0.165024 0.763305 -3.02646 -0.982107 -0.732815 -0.162365 -3.51266 
203 3.53831 4.21674 -55.1525 6.03166 6.27392 1.75936 0.302437 -1.2195 -0.0444713 -3.1433 
204 5.07312 2.13635 -55.1525 6.04997 7.03887 2.00315 0.446064 -0.528119 0.0805386 -3.14511 
205 1.29262 4.16451 -53.8815 0.86127 -0.348225 -3.67504 -0.408873 -0.573881 0.839001 -3.51412 
206 1.24176 4.17585 -51.3147 -1.28679 -1.91099 -0.373782 -0.214931 -0.88057 0.220147 -3.53903 
207 1.90264 6.26187 -52.5941 -0.917829 -1.45679 -0.573003 -0.184178 -1.16803 0.820002 -3.52792 
208 3.4607 4.22944 -52.6036 -0.748882 -0.925834 0.0954355 -0.677535 -0.49607 0.191365 -3.53019 
209 1.82403 6.27282 -50.0101 -1.64263 -2.32546 -0.262397 -0.200425 -1.28162 0.432946 -3.53673 
210 5.01221 2.17771 -52.6036 -1.34185 -0.348572 0.0546109 -0.502577 0.0191981 0.991504 -3.52952 
211 2.80522 2.14769 -51.32 -1.10368 -0.946867 -0.112723 -0.278082 -0.333019 0.261783 -3.53414 
212 2.77226 2.17461 -48.7405 -1.96863 -1.83667 -0.545628 -0.291631 -0.223551 0.337957 -3.53087 
213 3.40036 4.25787 -50.02 -1.4314 -1.65387 -0.138996 -0.408387 -0.708769 0.286325 -3.53497 
214 4.971 2.23184 -50.02 -1.84416 -1.27397 -0.113742 -0.296374 0.020947 0.835947 -3.535 
215 1.18965 4.18043 -48.7355 -2.17801 -2.75567 -0.785871 -0.180419 -0.850069 0.28402 -3.5364 
216 1.13972 4.1865 -46.154 -2.6371 -3.19131 -0.973964 -0.165227 -0.833632 0.402035 -3.53604 
217 1.74858 6.27864 -47.4305 -2.10035 -2.83293 -0.673462 -0.213736 -1.24118 0.546258 -3.53588 
218 3.345 4.28749 -47.4411 -1.89806 -2.20791 -0.561587 -0.301235 -0.639281 0.335887 -3.53414 
219 1.67464 6.29042 -44.8494 -2.46974 -3.19109 -0.861894 -0.201089 -1.24472 0.604575 -3.53533 
220 4.9348 2.28445 -47.4403 -2.32179 -1.78826 -0.540839 -0.212374 0.105849 0.864917 -3.53419 
221 2.74198 2.20189 -46.1593 -2.36452 -2.26789 -0.738874 -0.232021 -0.161379 0.392602 -3.53074 
222 2.71359 2.23052 -43.5775 -2.67686 -2.59076 -0.950364 -0.216204 -0.149975 0.41275 -3.53037 
223 3.29148 4.31967 -44.8604 -2.23387 -2.57311 -0.716873 -0.260888 -0.625224 0.371187 -3.53392 
224 4.90189 2.3375 -44.8595 -2.65703 -2.14343 -0.722091 -0.178351 0.14329 0.896106 -3.53392 
225 1.09055 4.19502 -43.572 -2.97572 -3.5116 -1.20196 -0.153038 -0.84152 0.427269 -3.53553 
226 1.04128 4.20425 -40.9909 -3.2354 -3.78685 -1.44322 -0.151101 -0.854516 0.433632 -3.53509 
227 1.6009 6.3039 -42.2683 -2.75199 -3.49757 -1.08905 -0.200727 -1.26246 0.619986 -3.53483 
228 3.23889 4.3533 -42.2794 -2.5073 -2.86964 -0.916918 -0.244076 -0.62757 0.38872 -3.5336 
229 1.5267 6.31806 -39.6884 -2.96261 -3.76482 -1.33298 -0.207855 -1.28152 0.62344 -3.53438 
230 4.8705 2.39143 -42.2785 -2.94031 -2.42588 -0.9278 -0.167826 0.154952 0.921046 -3.5336 
231 2.68575 2.25987 -40.9964 -2.93282 -2.85218 -1.18079 -0.213778 -0.147977 0.426511 -3.53006 
232 2.65801 2.28981 -38.4167 -3.14635 -3.06709 -1.42325 -0.218814 -0.14716 0.437847 -3.52981 
233 3.18652 4.38799 -39.6994 -2.72455 -3.1097 -1.14089 -0.238848 -0.632457 0.398978 -3.53333 
234 4.8397 2.44632 -39.6985 -3.17717 -2.64387 -1.1517 -0.168602 0.159679 0.942542 -3.53333 
235 0.991635 4.21375 -38.4114 -3.43483 -4.03131 -1.69439 -0.156385 -0.866815 0.434549 -3.53468 
236 0.94156 4.22345 -35.8343 -3.57575 -4.24176 -1.95021 -0.166028 -0.87666 0.429056 -3.53431 
237 1.45187 6.33271 -37.1108 -3.10476 -3.98847 -1.58526 -0.218742 -1.29727 0.618178 -3.53398 
238 3.13414 4.42361 -37.1215 -2.88602 -3.29338 -1.375 -0.242359 -0.638758 0.401091 -3.53314 
239 1.37647 6.34788 -34.5362 -3.17946 -4.15747 -1.83226 -0.229134 -1.30927 0.599214 -3.53367 
240 4.80919 2.50218 -37.1205 -3.36468 -2.80034 -1.38449 -0.178949 0.159337 0.956262 -3.53314 
241 2.63025 2.3203 -35.8394 -3.31644 -3.23595 -1.66998 -0.230746 -0.148963 0.443524 -3.52963 
242 2.60248 2.35126 -33.2649 -3.43857 -3.35665 -1.91061 -0.249356 -0.156751 0.439689 -3.52955 
243 3.08167 4.46006 -34.5463 -2.98961 -3.41941 -1.60559 -0.25393 -0.649767 0.389817 -3.53306 
244 4.7789 2.55888 -34.5453 -3.49758 -2.89737 -1.61414 -0.199008 0.148951 0.957186 -3.53306 
245 0.891127 4.23337 -33.2603 -3.65767 -4.40928 -2.19924 -0.176665 -0.884323 0.413062 -3.53401 
246 0.84041 4.24341 -30.6897 -3.68809 -4.53112 -2.42794 -0.185291 -0.890659 0.3855 -3.5338 
247 1.30063 6.36341 -31.9652 -3.1968 -4.26986 -2.05774 -0.235985 -1.31863 0.564201 -3.53349 
248 3.029 4.49704 -31.9745 -3.04012 -3.49504 -1.81999 -0.271874 -0.666478 0.36399 -3.53307 
249 1.22439 6.37898 -29.3977 -3.1747 -4.33539 -2.25066 -0.238271 -1.32596 0.516682 -3.53342 
250 4.74867 2.61615 -31.9733 -3.57838 -2.94439 -1.82842 -0.227219 0.126089 0.945207 -3.53306 
251 2.5746 2.38252 -30.6938 -3.51421 -3.43348 -2.13388 -0.272863 -0.171184 0.426123 -3.52954 
252 2.54647 2.41384 -28.1258 -3.55192 -3.47697 -2.33136 -0.298343 -0.189905 0.406161 -3.52957 
253 2.97596 4.53415 -29.4059 -3.05007 -3.53436 -2.00991 -0.293207 -0.686504 0.328094 -3.53312 
254 4.7182 2.67365 -29.4046 -3.61753 -2.95676 -2.01872 -0.260208 0.0935349 0.924786 -3.5331 
255 0.78945 4.25338 -28.1224 -3.68176 -4.6132 -2.62665 -0.190129 -0.896133 0.349525 -3.53368 
256 0.738258 4.26304 -25.5582 -3.65386 -4.66526 -2.79181 -0.190643 -0.900805 0.309766 -3.53362 
257 1.14778 6.39419 -26.8335 -3.13071 -4.36782 -2.40769 -0.236174 -1.33133 0.462767 -3.53342 
258 2.9224 4.571 -26.8405 -3.03365 -3.55111 -2.17198 -0.314692 -0.706845 0.288111 -3.53318 
259 1.07082 6.40872 -24.272 -3.07805 -4.37954 -2.53114 -0.230208 -1.33501 0.407883 -3.53347 
260 4.6872 2.73112 -26.8391 -3.62746 -2.94916 -2.18102 -0.294352 0.0561991 0.900914 -3.53316 
261 2.51796 2.44502 -25.561 -3.56273 -3.49871 -2.4991 -0.323058 -0.209943 0.383763 -3.52962 
262 2.48897 2.47592 -22.9988 -3.55659 -3.50812 -2.63704 -0.345186 -0.229158 0.361773 -3.52967 
263 2.86821 4.60731 -24.2778 -3.00271 -3.55553 -2.30635 -0.33381 -0.725432 0.248557 -3.53323 
264 4.65544 2.78834 -24.2763 -3.61892 -2.93253 -2.31506 -0.326994 0.0183793 0.877155 -3.53321 
265 0.686839 4.27221 -22.9967 -3.61617 -4.69678 -2.92463 -0.187092 -0.904695 0.270045 -3.5336 
266 0.635202 4.28079 -20.4373 -3.57646 -4.71526 -3.02888 -0.180096 -0.907954 0.232694 -3.5336 
267 0.993526 6.42235 -21.7127 -3.02523 -4.37975 -2.62592 -0.220952 -1.33753 0.355544 -3.53353 
268 2.81334 4.64292 -21.7174 -2.96568 -3.55433 -2.41514 -0.349133 -0.741332 0.211923 -3.53327 
269 0.915913 6.43496 -19.1552 -2.97699 -4.37456 -2.69752 -0.20903 -1.33951 0.307462 -3.53359 
270 4.62279 2.8452 -21.7158 -3.59995 -2.91395 -2.42296 -0.356673 -0.0172077 0.855491 -3.53325 
271 2.45945 2.50645 -20.4388 -3.54095 -3.51163 -2.74759 -0.363858 -0.246457 0.341693 -3.52971 
272 2.4294 2.53657 -17.8807 -3.52091 -3.51317 -2.83437 -0.378901 -0.261544 0.324054 -3.52975 
273 2.75777 4.67773 -19.159 -2.9279 -3.55151 -2.50149 -0.360185 -0.754449 0.179156 -3.5333 
274 4.5892 2.90162 -19.1573 -3.57602 -2.89743 -2.50808 -0.382844 -0.0493195 0.836747 -3.53328 
275 0.583359 4.28871 -17.8797 -3.53921 -4.72599 -3.1092 -0.170386 -0.91085 0.198749 -3.5336 
276 0.531324 4.29592 -15.3234 -3.50662 -4.7324 -3.1701 -0.15867 -0.913688 0.168403 -3.53361 
277 0.838002 6.44649 -16.599 -2.9354 -4.36767 -2.75094 -0.195088 -1.34153 0.264096 -3.53365 
278 2.70154 4.71172 -16.602 -2.89235 -3.54923 -2.56884 -0.367128 -0.765152 0.150275 -3.53332 
279 0.759806 6.45691 -14.0439 -2.90078 -4.36111 -2.79031 -0.179755 -1.344 0.225196 -3.53369 
280 4.55466 2.95757 -16.6004 -3.55055 -2.8849 -2.57409 -0.405524 -0.0777355 0.821026 -3.53331 
281 2.39883 2.56626 -15.3241 -3.49961 -3.51488 -2.90128 -0.390562 -0.274595 0.308819 -3.52977 
282 2.36774 2.59552 -12.7685 -3.4788 -3.51771 -2.95197 -0.399297 -0.286002 0.295679 -3.52979 
283 2.64466 4.74487 -14.0462 -2.8604 -3.54847 -2.62051 -0.370469 -0.773989 0.124832 -3.53333 
284 4.51917 3.01303 -14.0446 -3.52548 -2.87696 -2.62445 -0.425036 -0.10281 0.808035 -3.53332 
285 0.479105 4.30242 -12.7682 -3.4793 -4.73655 -3.21555 -0.145573 -0.916735 0.141383 -3.53362 
286 0.426705 4.30821 -10.2137 -3.4569 -4.73957 -3.24879 -0.13162 -0.920128 0.117216 -3.53362 
287 0.68133 6.46623 -11.4897 -2.87232 -4.3558 -2.81888 -0.16358 -1.34709 0.190174 -3.53373 
288 2.58716 4.77719 -11.4914 -2.83228 -3.54948 -2.65947 -0.370857 -0.781488 0.102207 -3.53334 
289 0.602575 6.47447 -8.93596 -2.8486 -4.35201 -2.83912 -0.14699 -1.3507 0.158333 -3.53375 
290 4.48277 3.06801 -11.4897 -3.50173 -2.87343 -2.66219 -0.441843 -0.125137 0.797301 -3.53333 
291 2.33616 2.62435 -10.2138 -3.45923 -3.5219 -2.98962 -0.405646 -0.296186 0.284227 -3.5298 
292 2.3041 2.65275 -7.65973 -3.44104 -3.5273 -3.01679 -0.410148 -0.305475 0.274066 -3.52981 
293 2.52907 4.80869 -8.9372 -2.80757 -3.55212 -2.6882 -0.368943 -0.788029 0.0817698 -3.53334 
294 4.44548 3.1225 -8.93556 -3.47953 -2.87373 -2.68977 -0.456433 -0.145329 0.788295 -3.53334 
295 0.374124 4.31331 -7.65985 -3.43847 -4.742 -3.27236 -0.117233 -0.923804 0.0953615 -3.53362 
296 0.321365 4.31772 -5.10638 -3.42286 -4.74399 -3.28813 -0.102725 -0.927455 0.0752615 -3.53363 
297 0.523548 6.48165 -6.38269 -2.82804 -4.34962 -2.85281 -0.130255 -1.35446 0.128962 -3.53377 
298 2.4704 4.8394 -6.38352 -2.78547 -3.55607 -2.70866 -0.365278 -0.793779 0.0629677 -3.53334 
299 0.444271 6.48778 -3.82972 -2.80935 -4.34837 -2.86112 -0.113464 -1.35774 0.101376 -3.53378 
300 4.40733 3.1765 -6.3819 -3.45872 -2.87717 -2.70907 -0.469236 -0.163896 0.78051 -3.53334 
301 2.27156 2.68074 -5.1061 -3.42399 -3.53361 -3.03546 -0.413268 -0.314048 0.264844 -3.52982 
302 2.23857 2.70831 -2.55276 -3.40769 -3.54062 -3.04696 -0.415326 -0.321937 0.256273 -3.52982 
303 2.41118 4.86933 -3.83019 -2.76517 -3.56107 -2.72222 -0.360231 -0.798702 0.0453494 -3.53334 
304 4.36834 3.23 -3.82857 -3.43897 -2.88319 -2.72144 -0.480545 -0.181203 0.773498 -3.53335 
305 0.268442 4.32146 -2.5532 -3.40907 -4.74553 -3.29733 -0.0882682 -0.930558 0.0563545 -3.53363 
306 0.364793 6.49289 -1.27695 -2.79201 -4.34804 -2.86471 -0.0965272 -1.35984 0.0749196 -3.5338 
307 2.35146 4.89846 -1.27707 -2.74615 -3.56704 -2.72973 -0.353924 -0.802625 0.0285584 -3.53335 
308 4.32855 3.28299 -1.27545 -3.42002 -2.89145 -2.72773 -0.490454 -0.197483 0.766895 -3.53335 
309 2.43635 7.09067 -0.00076652 -2.22107 -3.36366 -2.4027 -0.317742 -1.20937 -0.188534 -3.53289 
310 0.434611 8.66783 -0.000972295 -2.25217 -4.02058 -2.49705 -0.100158 -1.74676 0.0828286 -3.53355 