ITEM: TIMESTEP
0
ITEM: NUMBER OF ATOMS
37664
ITEM: BOX BOUNDS ff ff ff
-100 100
-100 100
-156.15 156.15
ITEM: ATOMS id x y z v_peratom_sxx v_peratom_syy v_peratom_szz v_peratom_sxy v_peratom_sxz v_peratom_syz c_atomPE 
1 -0.00391559 -0.00204121 0.000952032 -5.17828 -5.16985 -9.53943 0.000866565 -0.0134264 -0.0368317 -3.51526 
2 -0.00411596 -0.00179486 2.55416 -5.17752 -5.16915 -9.53783 0.000148023 -0.0141898 -0.036132 -3.51527 
3 -0.00432812 -0.00150766 5.10745 -5.17233 -5.1644 -9.5264 -0.000790246 -0.0135509 -0.0353655 -3.51532 
4 -0.00454587 -0.00118537 7.66096 -5.16194 -5.15503 -9.50377 -0.0019404 -0.0110632 -0.0346352 -3.51542 
5 -0.00475361 -0.0008419 10.2149 -5.14537 -5.14017 -9.46796 -0.0032207 -0.00660587 -0.0339125 -3.51558 
6 -0.00492837 -0.000495891 12.7693 -5.12154 -5.11867 -9.41639 -0.00448874 -0.000471173 -0.0330341 -3.51582 
7 -0.00504482 -0.000165755 15.3246 -5.08908 -5.08896 -9.34592 -0.00558515 0.00668854 -0.0317764 -3.51614 
8 -0.00508121 0.000134527 17.8809 -5.04609 -5.04882 -9.25269 -0.00638334 0.014034 -0.0299631 -3.51657 
9 -0.0050242 0.00039724 20.4386 -4.98986 -4.99522 -9.13198 -0.00682089 0.0207495 -0.0275476 -3.51712 
10 -0.00487098 0.000620242 22.9982 -4.91645 -4.92399 -8.97829 -0.00690502 0.026212 -0.0246434 -3.51781 
11 -0.00462864 0.000804589 25.5599 -4.82061 -4.82971 -8.78593 -0.00669805 0.0300809 -0.0215021 -3.51867 
12 -0.00431138 0.000951723 28.1242 -4.69595 -4.70599 -8.5507 -0.00629276 0.0323083 -0.0184535 -3.5197 
13 -0.00393666 0.00106131 30.6916 -4.53651 -4.54694 -8.27298 -0.00578606 0.0330873 -0.0158242 -3.52089 
14 -0.0035212 0.0011304 33.2622 -4.3406 -4.35095 -7.96147 -0.00525695 0.032765 -0.0138575 -3.52219 
15 -0.00307788 0.00115372 35.8361 -4.11594 -4.12589 -7.63359 -0.00475413 0.0317497 -0.0126675 -3.52346 
16 -0.002614 0.00112448 38.4127 -3.87852 -3.88786 -7.30767 -0.0042942 0.0304255 -0.012243 -3.52457 
17 -0.00213056 0.00103458 40.9919 -3.63989 -3.64848 -6.99012 -0.0038653 0.0291002 -0.0125016 -3.52546 
18 -0.00161991 0.000873304 43.5732 -3.40106 -3.40875 -6.66817 -0.00342534 0.0280607 -0.0133686 -3.52619 
19 -0.00106193 0.000624785 46.157 -3.13694 -3.14339 -6.30495 -0.00286917 0.0275797 -0.0147958 -3.52693 
20 -0.000430198 0.00026408 48.7436 -2.75393 -2.75748 -5.8649 -0.00160154 0.0271832 -0.0166825 -3.52781 
21 5.95933e-07 -4.11185e-08 51.3317 -1.92319 -1.92292 -4.92081 0.000129115 -0.00139138 0.000872171 -3.53204 
22 4.01304e-07 -1.42881e-06 53.9138 -0.851909 -0.85192 -8.9178 6.45578e-08 -2.72832e-05 -7.18571e-05 -3.48169 
23 8.71386e-07 -1.98378e-06 56.3885 1.68559 1.6856 1.87688 -1.55633e-05 2.40678e-05 -4.02186e-07 -2.55581 
24 -1.23087e-07 -1.12453e-06 -53.8876 -2.60695 -2.60698 -6.54961 -1.65188e-05 9.03224e-06 -3.26314e-05 -3.40183 
25 1.02659e-07 -1.55837e-06 -51.3239 -2.07919 -2.07926 -5.57952 -0.000385696 0.000953788 0.0021226 -3.52873 
26 -0.000247508 -0.000603546 -48.7462 -2.69424 -2.69259 -6.14793 0.00516334 -0.0156222 -0.0377274 -3.52639 
27 -0.000567872 -0.00144825 -46.1646 -3.0212 -3.01803 -6.34802 0.00915507 -0.0133905 -0.0350875 -3.52678 
28 -0.000794703 -0.00208729 -43.5822 -3.3028 -3.29789 -6.6083 0.0102438 -0.00972943 -0.0330043 -3.52634 
29 -0.000939182 -0.00257193 -41.0007 -3.55845 -3.55146 -6.89645 0.0104612 -0.00600226 -0.0315126 -3.52574 
30 -0.00102851 -0.00293228 -38.4209 -3.80896 -3.79978 -7.20493 0.0101147 -0.00253308 -0.0304073 -3.52491 
31 -0.00109069 -0.00318653 -35.8434 -4.05555 -4.04437 -7.52975 0.00934171 0.000344118 -0.0295778 -3.52385 
32 -0.00115348 -0.00334888 -33.2685 -4.28882 -4.27606 -7.85981 0.008278 0.00228956 -0.0290367 -3.52262 
33 -0.0012417 -0.00343349 -30.6968 -4.49569 -4.48195 -8.17755 0.00708841 0.00308308 -0.0288504 -3.52133 
34 -0.00137322 -0.00345501 -28.1282 -4.66763 -4.65357 -8.46588 0.00594283 0.00272419 -0.0290742 -3.52011 
35 -0.00155564 -0.00342733 -25.5628 -4.80365 -4.78988 -8.71429 0.00497308 0.00145588 -0.0297046 -3.51903 
36 -0.00178544 -0.00336224 -23.0001 -4.90781 -4.89478 -8.91985 0.00424049 -0.000309517 -0.0306648 -3.51811 
37 -0.00204993 -0.00326893 -20.4397 -4.98601 -4.97397 -9.08496 0.00373086 -0.00213756 -0.031834 -3.51737 
38 -0.00233127 -0.00315452 -17.8812 -5.04405 -5.03304 -9.21463 0.00337755 -0.00372235 -0.033089 -3.51678 
39 -0.00261137 -0.00302506 -15.3243 -5.08681 -5.07675 -9.31462 0.00309876 -0.00497546 -0.0343291 -3.51632 
40 -0.00287612 -0.00288586 -12.7685 -5.11812 -5.10883 -9.39035 0.00282983 -0.00601907 -0.0354712 -3.51597 
41 -0.00311774 -0.00274058 -10.2137 -5.14084 -5.1321 -9.44652 0.00253697 -0.00709251 -0.0364291 -3.5157 
42 -0.0033355 -0.00258963 -7.65946 -5.15705 -5.14862 -9.48698 0.00221004 -0.00841499 -0.037105 -3.51551 
43 -0.00353468 -0.00242883 -5.10573 -5.16818 -5.15987 -9.51472 0.00184241 -0.0100569 -0.037409 -3.51538 
44 -0.00372456 -0.00224959 -2.5523 -5.17514 -5.16678 -9.53181 0.00141071 -0.0118596 -0.0373018 -3.5153 
45 0.0922823 2.15814 1.27649 -4.05324 -5.13716 -3.83745 -0.0508011 -0.449821 -0.000635694 -3.52907 
46 0.0657545 2.1594 3.82965 -4.04837 -5.13685 -3.83126 -0.0396336 -0.449819 -0.0100736 -3.52909 
47 0.0392269 2.16035 6.38296 -4.04439 -5.13437 -3.8167 -0.0284462 -0.448523 -0.0199257 -3.52911 
48 0.0127392 2.16098 8.93657 -4.04188 -5.12946 -3.79258 -0.017041 -0.445963 -0.0304259 -3.52914 
49 -0.0136649 2.16128 11.4907 -4.04166 -5.12167 -3.75731 -0.00526853 -0.442462 -0.0417453 -3.52918 
50 -0.0399453 2.16121 14.0454 -4.04453 -5.11024 -3.70887 0.00685723 -0.438533 -0.0540592 -3.52922 
51 -0.0660721 2.16077 16.6012 -4.05087 -5.09389 -3.64465 0.0190996 -0.434703 -0.0676145 -3.52928 
52 -0.0920295 2.15995 19.1581 -4.06032 -5.07065 -3.56133 0.0310075 -0.431374 -0.0827452 -3.52934 
53 -0.117816 2.15877 21.7166 -4.07141 -5.03757 -3.45481 0.0419681 -0.428751 -0.0997953 -3.52942 
54 -0.143441 2.15723 24.277 -4.081 -4.99037 -3.32047 0.0512838 -0.426828 -0.118905 -3.52953 
55 -0.168924 2.15537 26.8398 -4.08339 -4.92307 -3.1539 0.0582762 -0.425431 -0.139605 -3.52967 
56 -0.194285 2.15327 29.4055 -4.06926 -4.82795 -2.9526 0.0624608 -0.424256 -0.160255 -3.52986 
57 -0.219536 2.151 31.9742 -4.02542 -4.69691 -2.71863 0.0638312 -0.422908 -0.177737 -3.53012 
58 -0.244674 2.14866 34.5463 -3.93818 -4.52554 -2.46092 0.0631738 -0.420915 -0.18858 -3.53046 
59 -0.269668 2.14629 37.1216 -3.80208 -4.31926 -2.19365 0.0620296 -0.417737 -0.192528 -3.53087 
60 -0.29447 2.14381 39.6996 -3.62549 -4.09273 -1.92824 0.0619498 -0.412958 -0.194642 -3.53128 
61 -0.319053 2.14113 42.2798 -3.42039 -3.85665 -1.66493 0.0636352 -0.406718 -0.201053 -3.53164 
62 -0.343449 2.13816 44.8621 -3.19342 -3.60784 -1.3922 0.0663245 -0.399604 -0.218423 -3.53193 
63 -0.367813 2.13511 47.4464 -2.91507 -3.29627 -1.10672 0.0667103 -0.393942 -0.238768 -3.53223 
64 -0.392512 2.13371 50.032 -2.4325 -2.80151 -0.493678 0.0610075 -0.413265 -0.205421 -3.53324 
65 -0.418483 2.1304 52.6263 -1.76577 -2.00552 -0.561414 0.0454984 -0.308949 -0.729956 -3.52457 
66 -0.44812 2.14653 55.1778 6.97659 7.73843 2.4309 0.0330153 -0.597322 1.77022 -3.02528 
67 0.649859 2.05055 -55.162 1.38944 0.842383 -0.678379 -0.188253 -0.0991978 1.20761 -3.26036 
68 0.633027 2.08274 -52.6122 -1.11197 -2.2187 -0.457712 -0.374489 -0.489289 -0.161414 -3.53566 
69 0.607028 2.08678 -50.0319 -2.00558 -2.5558 -0.875667 -0.169316 -0.429882 0.0761682 -3.53397 
70 0.581256 2.08803 -47.4533 -2.63791 -3.07251 -1.21014 -0.124952 -0.403643 0.14716 -3.5329 
71 0.556404 2.09137 -44.8713 -3.05971 -3.44215 -1.36833 -0.103393 -0.397896 0.191763 -3.53225 
72 0.531754 2.09553 -42.2894 -3.35907 -3.72767 -1.59665 -0.0940978 -0.40159 0.204 -3.53182 
73 0.507007 2.09995 -39.7087 -3.60315 -3.98358 -1.84686 -0.0924194 -0.407027 0.210396 -3.53141 
74 0.48206 2.10449 -37.13 -3.8058 -4.22146 -2.11006 -0.0965064 -0.412156 0.214259 -3.53097 
75 0.456907 2.10915 -34.5538 -3.9638 -4.43622 -2.37909 -0.104689 -0.416593 0.213284 -3.53055 
76 0.431573 2.11392 -31.9807 -4.07281 -4.61807 -2.64189 -0.114636 -0.420613 0.204783 -3.53017 
77 0.406082 2.11875 -29.4109 -4.1361 -4.7618 -2.88479 -0.123813 -0.424461 0.18876 -3.52988 
78 0.380447 2.12353 -26.8443 -4.164 -4.86953 -3.09781 -0.130352 -0.428109 0.167816 -3.52965 
79 0.354674 2.12816 -24.2806 -4.16845 -4.94765 -3.27674 -0.133416 -0.431405 0.145027 -3.52948 
80 0.328774 2.13257 -21.7194 -4.15939 -5.00338 -3.42216 -0.132986 -0.434221 0.122663 -3.52936 
81 0.302763 2.1367 -19.1603 -4.14388 -5.04299 -3.53744 -0.129486 -0.43653 0.101976 -3.52928 
82 0.276661 2.14053 -16.6029 -4.12646 -5.07129 -3.62701 -0.123489 -0.438414 0.0834437 -3.52921 
83 0.250487 2.14403 -14.0467 -4.10977 -5.09175 -3.69536 -0.115558 -0.440044 0.0670853 -3.52917 
84 0.224253 2.1472 -11.4916 -4.09514 -5.10672 -3.74653 -0.106188 -0.441624 0.0526946 -3.52913 
85 0.197966 2.15003 -8.93721 -4.08299 -5.11778 -3.78387 -0.0958047 -0.443319 0.0399843 -3.52911 
86 0.171626 2.15254 -6.38337 -4.07319 -5.12591 -3.81006 -0.0847845 -0.445182 0.0286427 -3.52909 
87 0.145231 2.15471 -3.8299 -4.06532 -5.1317 -3.82702 -0.0734557 -0.447098 0.0183384 -3.52908 
88 0.11878 2.15658 -1.27665 -4.05882 -5.13542 -3.83598 -0.0620778 -0.448779 0.00870852 -3.52907 
89 0.215203 4.32479 -0.000783685 -3.39183 -4.74249 -3.30012 -0.0732742 -0.929129 0.036256 -3.53365 
90 0.285145 6.49731 1.27498 -2.77274 -4.34458 -2.86323 -0.0786128 -1.35619 0.0484166 -3.53382 
91 2.20498 2.73569 -5.71634e-05 -3.3888 -3.54404 -3.05081 -0.416103 -0.328391 0.246076 -3.52984 
92 2.17129 2.76248 2.55306 -3.37443 -3.55329 -3.04959 -0.416033 -0.334421 0.238158 -3.52984 
93 2.29122 4.92709 1.2753 -2.72479 -3.57061 -2.73018 -0.345777 -0.802765 0.01167 -3.53336 
94 4.28792 3.33571 1.27703 -3.39942 -2.89794 -2.72671 -0.498204 -0.212083 0.758698 -3.53336 
95 0.162256 4.32735 2.55215 -3.38281 -4.74381 -3.29734 -0.058952 -0.92938 0.0179298 -3.53366 
96 0.109305 4.32924 5.10517 -3.3765 -4.74497 -3.28824 -0.0442978 -0.92815 -0.000757002 -3.53367 
97 0.20574 6.50048 3.82764 -2.76293 -4.3472 -2.85787 -0.0610011 -1.35528 0.0222508 -3.53383 
98 2.23083 4.95466 3.82833 -2.71067 -3.57984 -2.72605 -0.336297 -0.804421 -0.00442348 -3.53336 
99 0.126407 6.50261 6.38046 -2.75831 -4.3513 -2.84761 -0.0426995 -1.35329 -0.00453299 -3.53384 
100 4.24678 3.38762 3.83009 -3.38358 -2.91173 -2.72151 -0.50459 -0.226688 0.752216 -3.53336 
101 2.13725 2.7888 5.10628 -3.36095 -3.5639 -3.04167 -0.414445 -0.339825 0.230238 -3.52984 
102 2.1029 2.81463 7.65975 -3.34891 -3.5761 -3.02624 -0.410873 -0.344734 0.222135 -3.52983 
103 2.17013 4.98137 6.38152 -2.69967 -3.59084 -2.71551 -0.32474 -0.805306 -0.0207384 -3.53336 
104 4.20497 3.43891 6.38333 -3.36953 -2.9284 -2.71007 -0.508677 -0.241021 0.745478 -3.53336 
105 0.0564181 4.33046 7.6584 -3.37422 -4.74608 -3.27218 -0.0290763 -0.925638 -0.0201877 -3.53368 
106 0.00366194 4.33099 10.212 -3.37751 -4.74714 -3.24822 -0.0131745 -0.922355 -0.0407275 -3.53369 
107 0.0472325 6.50368 8.93355 -2.76067 -4.35712 -2.83199 -0.0237208 -1.35084 -0.0324519 -3.53383 
108 2.10917 5.00719 8.93502 -2.69301 -3.6037 -2.69774 -0.310815 -0.805824 -0.0377153 -3.53336 
109 -0.0317156 6.50367 11.4871 -2.77141 -4.3648 -2.81028 -0.00426183 -1.34868 -0.0620763 -3.53382 
110 4.16253 3.48955 8.93688 -3.35798 -2.94819 -2.69158 -0.51002 -0.255444 0.738286 -3.53336 
111 2.06827 2.83994 10.2136 -3.33909 -3.58995 -3.00204 -0.404854 -0.349457 0.213615 -3.52983 
112 2.03341 2.86471 12.768 -3.3323 -3.60524 -2.96745 -0.396032 -0.354485 0.204343 -3.52982 
113 2.04802 5.03209 11.489 -2.69194 -3.61829 -2.67164 -0.29438 -0.806575 -0.0559325 -3.53336 
114 4.11949 3.53952 11.4909 -3.3497 -2.97119 -2.66487 -0.508223 -0.270468 0.730365 -3.53336 
115 -0.0489084 4.33079 12.7662 -3.38768 -4.74796 -3.21512 0.00331634 -0.918943 -0.0627871 -3.5337 
116 -0.101256 4.32986 15.3211 -3.40558 -4.748 -3.1711 0.0200932 -0.915956 -0.0868701 -3.5337 
117 -0.110395 6.50256 14.0412 -2.79134 -4.37425 -2.78133 0.0153349 -1.3474 -0.0940688 -3.53379 
118 1.9867 5.05604 14.0436 -2.69741 -3.63425 -2.63577 -0.275443 -0.808251 -0.0761102 -3.53336 
119 -0.188787 6.50033 16.5961 -2.82066 -4.38507 -2.74339 0.0346509 -1.34731 -0.129188 -3.53375 
120 4.07586 3.58878 14.0455 -3.34534 -2.99736 -2.62834 -0.502962 -0.286747 0.721311 -3.53336 
121 1.99833 2.88891 15.3233 -3.32916 -3.62142 -2.92036 -0.384204 -0.360439 0.19386 -3.5298 
122 1.96305 2.91251 17.8795 -3.32982 -3.6375 -2.85822 -0.369297 -0.367979 0.181592 -3.52978 
123 1.92523 5.07901 16.5991 -2.70994 -3.65093 -2.58824 -0.254111 -0.81153 -0.0990767 -3.53335 
124 4.03167 3.63729 16.601 -3.34526 -3.0264 -2.58003 -0.49398 -0.305042 0.710563 -3.53335 
125 -0.153364 4.32819 17.8771 -3.43135 -4.74623 -3.11372 0.0366909 -0.913719 -0.11357 -3.5337 
126 -0.205231 4.32579 20.4343 -3.46441 -4.74087 -3.03968 0.0525469 -0.912279 -0.143491 -3.53369 
127 -0.266888 6.49697 19.1521 -2.85905 -4.39636 -2.69393 0.0532612 -1.34839 -0.168236 -3.5337 
128 1.86362 5.10099 19.1557 -2.72954 -3.66729 -2.52659 -0.230528 -0.816995 -0.125692 -3.53333 
129 -0.344704 6.4925 21.7094 -2.90564 -4.40641 -2.62938 0.0707818 -1.35026 -0.21191 -3.53363 
130 3.98692 3.68502 19.1576 -3.34939 -3.05773 -2.51748 -0.481058 -0.326153 0.697408 -3.53334 
131 1.92757 2.93551 20.4371 -3.33372 -3.65194 -2.77789 -0.351327 -0.377713 0.166909 -3.52975 
132 1.8919 2.95789 22.9964 -3.33923 -3.66229 -2.67576 -0.330407 -0.390075 0.149262 -3.52972 
133 1.80186 5.12193 21.7137 -2.75556 -3.68173 -2.44779 -0.204863 -0.825096 -0.156706 -3.5333 
134 3.94159 3.73194 21.7156 -3.35701 -3.09021 -2.43781 -0.46404 -0.35082 0.681049 -3.53332 
135 -0.256865 4.32266 22.9932 -3.50307 -4.72905 -2.94479 0.0670499 -0.911438 -0.177037 -3.53369 
136 -0.308282 4.31887 25.5541 -3.54397 -4.70625 -2.82413 0.0795583 -0.910846 -0.214028 -3.53369 
137 -0.422237 6.48696 24.2683 -2.95867 -4.41224 -2.54505 0.0868804 -1.35231 -0.260495 -3.53356 
138 1.73995 5.14186 24.2735 -2.78635 -3.69169 -2.34829 -0.177374 -0.836094 -0.19249 -3.53327 
139 -0.499489 6.48042 26.8293 -3.01479 -4.40887 -2.43519 0.101228 -1.35382 -0.313317 -3.5335 
140 3.8957 3.77803 24.2754 -3.36642 -3.12178 -2.33774 -0.442943 -0.379527 0.660765 -3.53328 
141 1.85603 2.97967 25.5578 -3.34308 -3.66473 -2.54797 -0.306836 -0.405114 0.128454 -3.52967 
142 1.81998 3.00088 28.1217 -3.33936 -3.65328 -2.39115 -0.28133 -0.422101 0.10515 -3.52962 
143 1.6779 5.1608 26.8355 -2.81863 -3.69319 -2.22439 -0.148604 -0.849909 -0.232554 -3.53322 
144 3.84927 3.82328 26.8373 -3.37429 -3.14878 -2.21386 -0.418194 -0.412115 0.636265 -3.53323 
145 -0.3595 4.31449 28.1175 -3.58089 -4.66564 -2.67275 0.0894122 -0.910112 -0.253067 -3.53372 
146 -0.410536 4.30968 30.6838 -3.6031 -4.59773 -2.4873 0.0960191 -0.908857 -0.29085 -3.5338 
147 -0.57646 6.47304 29.3927 -3.0676 -4.38837 -2.2936 0.113385 -1.35411 -0.367944 -3.53347 
148 1.61573 5.17886 29.4001 -2.84626 -3.68012 -2.0729 -0.119706 -0.865745 -0.27478 -3.53317 
149 -0.653149 6.46512 31.9592 -3.10577 -4.33892 -2.11553 0.122671 -1.35272 -0.419435 -3.53349 
150 3.8024 3.86776 29.4017 -3.37461 -3.16496 -2.06305 -0.390989 -0.447099 0.608314 -3.53317 
151 1.78383 3.02164 30.6885 -3.31845 -3.61917 -2.20377 -0.255338 -0.438986 0.0816039 -3.52957 
152 1.74771 3.04211 33.2586 -3.26683 -3.55128 -1.98794 -0.231214 -0.452127 0.0620447 -3.52955 
153 1.55353 5.19626 31.9676 -2.85855 -3.64348 -1.89231 -0.0927677 -0.881395 -0.314558 -3.53311 
154 3.75526 3.91159 31.9692 -3.35731 -3.16033 -1.88345 -0.363597 -0.480831 0.579591 -3.53311 
155 -0.461391 4.30466 33.2534 -3.59459 -4.49118 -2.26893 0.0991341 -0.906576 -0.322206 -3.53396 
156 -0.512029 4.29963 35.8265 -3.53746 -4.33709 -2.02631 0.0993294 -0.902342 -0.342577 -3.53423 
157 -0.729538 6.45701 34.5292 -3.11159 -4.24507 -1.90126 0.12826 -1.34914 -0.460724 -3.53362 
158 1.49147 5.21336 34.5386 -2.83923 -3.57125 -1.68431 -0.0707108 -0.89258 -0.34486 -3.53308 
159 -0.805562 6.44911 37.1028 -3.06364 -4.09218 -1.66094 0.129843 -1.34206 -0.486115 -3.53388 
160 3.70816 3.95503 34.5399 -3.3071 -3.12094 -1.67619 -0.339176 -0.507413 0.555088 -3.53307 
161 1.71179 3.06249 35.8321 -3.17039 -3.43959 -1.75084 -0.211603 -0.457591 0.0510247 -3.52961 
162 1.67622 3.08289 38.4086 -3.02345 -3.28232 -1.50323 -0.197604 -0.454941 0.0481952 -3.52977 
163 1.42978 5.23055 37.1128 -2.76923 -3.45068 -1.45578 -0.0561897 -0.893997 -0.359715 -3.53313 
164 3.66146 3.99834 37.1141 -3.20579 -3.0325 -1.4479 -0.320503 -0.521388 0.539995 -3.53313 
165 -0.562367 4.29465 38.4027 -3.42273 -4.13783 -1.77458 0.0982753 -0.894957 -0.353465 -3.53458 
166 -0.61231 4.28957 40.9816 -3.25791 -3.90946 -1.52615 0.0981943 -0.883879 -0.363844 -3.53492 
167 -0.881088 6.4415 39.6796 -2.95026 -3.87989 -1.41446 0.12867 -1.32974 -0.498682 -3.53425 
168 1.36871 5.24801 39.6902 -2.63797 -3.27712 -1.21855 -0.049575 -0.88435 -0.362355 -3.5333 
169 -0.95601 6.43389 42.2588 -2.7798 -3.62831 -1.17954 0.127442 -1.31213 -0.511192 -3.53461 
170 3.61541 4.04169 39.6913 -3.04308 -2.88998 -1.21093 -0.30797 -0.523937 0.532943 -3.53329 
171 1.64102 3.10324 40.9876 -2.8344 -3.08838 -1.25282 -0.187532 -0.449402 0.0455772 -3.53 
172 1.60609 3.12338 43.5688 -2.61322 -2.86586 -0.997249 -0.178866 -0.447512 0.0348632 -3.53027 
173 1.3083 5.26559 42.2698 -2.45191 -3.05972 -0.982719 -0.0480501 -0.870127 -0.367185 -3.53355 
174 3.56997 4.08498 42.2709 -2.82641 -2.70181 -0.977027 -0.299391 -0.524854 0.523082 -3.53354 
175 -0.661842 4.28417 43.5623 -3.05425 -3.66241 -1.28047 0.100238 -0.869948 -0.382109 -3.53523 
176 -0.711127 4.27844 46.1446 -2.82378 -3.39473 -1.0176 0.103596 -0.85532 -0.413696 -3.53549 
177 -1.03039 6.42607 44.8394 -2.55938 -3.34446 -0.96287 0.127529 -1.29154 -0.528902 -3.53496 
178 1.24842 5.28313 44.851 -2.21832 -2.80329 -0.749894 -0.0498794 -0.859802 -0.385722 -3.53386 
179 -1.10458 6.41838 47.4203 -2.29599 -3.01705 -0.776403 0.129764 -1.27252 -0.542042 -3.53528 
180 3.52493 4.12813 44.852 -2.56111 -2.47543 -0.752011 -0.29211 -0.533047 0.501831 -3.53383 
181 1.57124 3.14329 46.1516 -2.36458 -2.6174 -0.719066 -0.171226 -0.456863 0.0076632 -3.53054 
182 1.53633 3.16338 48.7364 -2.08955 -2.36152 -0.347737 -0.183221 -0.479893 -0.032313 -3.53015 
183 1.1886 5.30066 47.4331 -1.94357 -2.50521 -0.51878 -0.0633742 -0.86614 -0.430861 -3.53412 
184 3.48001 4.17121 47.4338 -2.24097 -2.22056 -0.543957 -0.286168 -0.559269 0.457734 -3.53404 
185 -0.760666 4.2734 48.7285 -2.603 -3.07462 -0.669956 0.0971279 -0.846666 -0.419521 -3.53516 
186 -0.811621 4.26877 51.3169 -1.98842 -2.35106 0.31183 0.0838907 -0.841935 -0.653072 -3.53805 
187 -1.17889 6.41384 50.0002 -2.0573 -2.54162 -0.333474 0.0867541 -1.27782 -0.61978 -3.53573 
188 1.12775 5.31799 50.0156 -1.56925 -2.07903 -0.0212342 -0.110549 -0.945567 -0.597554 -3.53484 
189 -1.25707 6.40546 52.5877 -1.61241 -2.48693 0.643231 0.175791 -1.31624 -0.613063 -3.53282 
190 3.43505 4.21346 50.0156 -1.75905 -1.85302 -0.0391671 -0.309458 -0.668744 0.311599 -3.5349 
191 1.50027 3.18358 51.3264 -1.43163 -1.70133 0.657899 -0.17263 -0.548529 -0.133057 -3.53273 
192 1.46587 3.20964 53.9052 0.0267044 0.953994 -0.79587 0.566308 -0.56098 0.138976 -3.37565 
193 1.06597 5.33731 52.6041 -1.2492 -1.89858 0.441471 -0.23698 -0.801318 -0.410797 -3.52779 
194 3.38747 4.26008 52.6041 -1.41016 -1.71362 0.38981 -0.390662 -0.639428 0.587363 -3.52746 
195 -0.866323 4.2769 53.8949 -0.0508669 -0.206129 -1.18047 0.0793759 -1.26166 1.02744 -3.38132 
196 1.3298 4.1174 -56.3442 5.06942 2.90559 1.60242 -1.25473 -0.273892 0.110264 -2.79034 
197 -1.33605 6.40133 55.1665 4.18005 2.79745 1.28996 0.319922 -1.5232 0.197877 -3.26107 
198 1.00488 5.36129 55.1754 5.64208 6.63186 2.70774 0.369862 -0.636458 -0.0326181 -3.15047 
199 1.98371 6.26223 -55.1334 6.93988 9.11552 2.92914 0.134187 -0.847907 -0.525663 -3.02309 
200 3.34328 4.30996 55.1754 5.53065 7.35767 2.86911 0.118704 -0.278626 0.562635 -3.15115 
201 2.87095 2.09325 -56.362 4.04253 6.0065 1.881 -3.16453 0.252644 0.34179 -2.79939 
202 2.84551 2.1252 -53.8874 0.165008 0.763293 -3.02648 -0.982109 -0.732814 -0.162364 -3.51266 
203 3.53831 4.21674 -55.1525 6.03166 6.27391 1.75936 0.302437 -1.21951 -0.0444738 -3.1433 
204 5.07312 2.13635 -55.1525 6.04997 7.03886 2.00315 0.446065 -0.52812 0.0805359 -3.14511 
205 1.29262 4.16451 -53.8815 0.861257 -0.348254 -3.67507 -0.408878 -0.573878 0.839 -3.51412 
206 1.24176 4.17585 -51.3147 -1.287 -1.91113 -0.376305 -0.214921 -0.880487 0.22062 -3.53903 
207 1.90264 6.26187 -52.5941 -0.917891 -1.45675 -0.572982 -0.184162 -1.16801 0.820118 -3.52792 
208 3.4607 4.22944 -52.6036 -0.748893 -0.925839 0.095442 -0.677506 -0.496044 0.191391 -3.53019 
209 1.82403 6.27282 -50.0101 -1.64507 -2.32856 -0.267879 -0.199695 -1.28158 0.428739 -3.53672 
210 5.01221 2.17771 -52.6036 -1.34186 -0.348575 0.0546115 -0.502557 0.0192204 0.991512 -3.52952 
211 2.80522 2.14769 -51.32 -1.10368 -0.946874 -0.112872 -0.278137 -0.333079 0.262134 -3.53414 
212 2.77225 2.17449 -48.7405 -1.97006 -1.83803 -0.546656 -0.291019 -0.226684 0.332714 -3.53088 
213 3.40036 4.25787 -50.02 -1.43196 -1.65428 -0.140322 -0.408602 -0.709669 0.283891 -3.53497 
214 4.971 2.23184 -50.02 -1.84402 -1.27429 -0.114056 -0.296521 0.0199707 0.83399 -3.53501 
215 1.18964 4.18027 -48.7356 -2.17896 -2.75902 -0.79128 -0.179854 -0.850168 0.275928 -3.5364 
216 1.13967 4.18607 -46.1541 -2.63771 -3.19333 -0.977504 -0.16281 -0.833477 0.395993 -3.53604 
217 1.74857 6.27835 -47.4306 -2.10118 -2.83574 -0.679795 -0.212621 -1.24114 0.539964 -3.53588 
218 3.345 4.28726 -47.4411 -1.89913 -2.21017 -0.563956 -0.300438 -0.6407 0.331542 -3.53414 
219 1.6746 6.28991 -44.8496 -2.47059 -3.19284 -0.866054 -0.198744 -1.24441 0.599458 -3.53534 
220 4.93479 2.28427 -47.4403 -2.32284 -1.78987 -0.541701 -0.211441 0.103628 0.861861 -3.5342 
221 2.74191 2.20156 -46.1594 -2.36519 -2.27004 -0.739402 -0.230165 -0.163465 0.388479 -3.53074 
222 2.71348 2.23002 -43.5776 -2.67764 -2.59334 -0.949957 -0.213439 -0.151586 0.409193 -3.53037 
223 3.29144 4.31926 -44.8605 -2.23469 -2.57536 -0.718561 -0.259106 -0.62609 0.367403 -3.53392 
224 4.90183 2.33718 -44.8595 -2.65783 -2.14518 -0.722705 -0.176482 0.141542 0.893536 -3.53393 
225 1.09046 4.1944 -43.5722 -2.97674 -3.51328 -1.20449 -0.149539 -0.841252 0.422055 -3.53553 
226 1.04118 4.20349 -40.9911 -3.23691 -3.78849 -1.44513 -0.146916 -0.854322 0.428931 -3.53509 
227 1.60084 6.30323 -42.2685 -2.75332 -3.4991 -1.09219 -0.197638 -1.26213 0.615561 -3.53484 
228 3.23882 4.35276 -42.2796 -2.50831 -2.87214 -0.917725 -0.241561 -0.62818 0.385393 -3.5336 
229 1.52661 6.31726 -39.6887 -2.9644 -3.76637 -1.33551 -0.2043 -1.28136 0.61948 -3.53439 
230 4.87041 2.391 -42.2786 -2.94118 -2.42801 -0.927811 -0.165267 0.153547 0.918891 -3.5336 
231 2.6856 2.25926 -40.9965 -2.93387 -2.85518 -1.17953 -0.21037 -0.149434 0.423329 -3.53006 
232 2.65783 2.28912 -38.4169 -3.14765 -3.07041 -1.42128 -0.214937 -0.148658 0.434931 -3.52981 
233 3.18643 4.38735 -39.6996 -2.72587 -3.11247 -1.14091 -0.235809 -0.633073 0.395971 -3.53333 
234 4.83958 2.44583 -39.6987 -3.17822 -2.64639 -1.15111 -0.165541 0.158425 0.940743 -3.53333 
235 0.9915 4.21288 -38.4116 -3.43676 -4.03293 -1.69583 -0.151763 -0.866835 0.430225 -3.53468 
236 0.941393 4.22252 -35.8346 -3.57795 -4.2433 -1.95117 -0.161164 -0.877004 0.425034 -3.53431 
237 1.45174 6.33184 -37.1111 -3.10685 -3.99004 -1.58731 -0.214921 -1.2974 0.614564 -3.53398 
238 3.13401 4.42291 -37.1217 -2.88757 -3.29635 -1.37434 -0.238964 -0.639563 0.398293 -3.53315 
239 1.37629 6.34695 -34.5366 -3.18158 -4.159 -1.83382 -0.225211 -1.30976 0.595885 -3.53367 
240 4.80904 2.50165 -37.1207 -3.36588 -2.80317 -1.38339 -0.175542 0.158071 0.954755 -3.53315 
241 2.63005 2.31956 -35.8395 -3.31793 -3.23944 -1.66743 -0.226549 -0.150654 0.44079 -3.52964 
242 2.60225 2.35051 -33.2651 -3.44013 -3.36016 -1.90758 -0.244987 -0.158745 0.437064 -3.52955 
243 3.0815 4.45933 -34.5466 -2.99126 -3.42246 -1.60436 -0.25033 -0.650879 0.387146 -3.53306 
244 4.77872 2.55834 -34.5455 -3.49885 -2.90039 -1.61259 -0.195398 0.147543 0.955902 -3.53306 
245 0.89092 4.2324 -33.2606 -3.6599 -4.41063 -2.19973 -0.171729 -0.885062 0.409303 -3.53401 
246 0.840152 4.24244 -30.69 -3.69008 -4.53219 -2.42794 -0.180441 -0.891813 0.381986 -3.5338 
247 1.30037 6.36247 -31.9656 -3.19864 -4.27127 -2.05877 -0.232095 -1.3195 0.561132 -3.53349 
248 3.02878 4.49632 -31.9747 -3.04167 -3.49803 -1.81826 -0.268214 -0.667953 0.361383 -3.53307 
249 1.22405 6.37804 -29.3982 -3.1759 -4.33653 -2.25113 -0.234524 -1.32716 0.513871 -3.53342 
250 4.74845 2.61563 -31.9735 -3.57958 -2.94746 -1.8265 -0.223545 0.124449 0.944075 -3.53306 
251 2.57434 2.38178 -30.6939 -3.51568 -3.43681 -2.13048 -0.268473 -0.173548 0.423542 -3.52954 
252 2.54618 2.41313 -28.126 -3.55312 -3.47989 -2.32771 -0.294077 -0.192651 0.403572 -3.52958 
253 2.97568 4.53345 -29.4062 -3.05126 -3.5371 -2.00778 -0.289624 -0.688337 0.32551 -3.53312 
254 4.71794 2.67318 -29.4049 -3.6185 -2.95967 -2.01648 -0.256604 0.0916107 0.923729 -3.5331 
255 0.789129 4.25242 -28.1227 -3.68318 -4.61387 -2.62618 -0.185501 -0.897666 0.346251 -3.53368 
256 0.737863 4.26212 -25.5585 -3.65438 -4.66541 -2.79094 -0.186351 -0.90262 0.306737 -3.53362 
257 1.14734 6.39328 -26.8339 -3.13089 -4.36853 -2.40761 -0.232657 -1.33278 0.460227 -3.53342 
258 2.92205 4.57035 -26.8408 -3.03421 -3.5534 -2.16954 -0.311312 -0.708966 0.285535 -3.53318 
259 1.07028 6.40786 -24.2724 -3.07687 -4.37965 -2.53055 -0.226982 -1.33654 0.405636 -3.53347 
260 4.68689 2.7307 -26.8393 -3.62801 -2.95168 -2.17856 -0.29094 0.0539911 0.899863 -3.53316 
261 2.51762 2.44436 -25.5612 -3.56349 -3.50101 -2.49534 -0.319052 -0.213025 0.381134 -3.52963 
262 2.48858 2.47533 -22.999 -3.5567 -3.50957 -2.6333 -0.341557 -0.232471 0.359095 -3.52968 
263 2.86778 4.60673 -24.2781 -3.00239 -3.55716 -2.30371 -0.33074 -0.727712 0.246003 -3.53323 
264 4.65509 2.788 -24.2766 -3.61889 -2.93441 -2.31246 -0.323882 0.0159399 0.876049 -3.53321 
265 0.686366 4.27136 -22.997 -3.6155 -4.69628 -2.92346 -0.183218 -0.906639 0.26727 -3.5336 
266 0.634652 4.28001 -20.4376 -3.57439 -4.71403 -3.02753 -0.176693 -0.909829 0.230179 -3.5336 
267 0.99288 6.42157 -21.7131 -3.02244 -4.3791 -2.62491 -0.218056 -1.33893 0.353614 -3.53353 
268 2.81283 4.64241 -21.7177 -2.96427 -3.55511 -2.41242 -0.346455 -0.743597 0.209431 -3.53327 
269 0.915177 6.43427 -19.1556 -2.97246 -4.37303 -2.69622 -0.206477 -1.34056 0.305861 -3.5336 
270 4.62239 2.84493 -21.7161 -3.59919 -2.91494 -2.42031 -0.353944 -0.0197783 0.854286 -3.53325 
271 2.45902 2.50594 -20.439 -3.54029 -3.51205 -2.74403 -0.360696 -0.249846 0.338981 -3.52972 
272 2.42892 2.53615 -17.8809 -3.51938 -3.51246 -2.8311 -0.376265 -0.264824 0.32134 -3.52975 
273 2.7572 4.67732 -19.1593 -2.92525 -3.5513 -2.49882 -0.357952 -0.756494 0.176783 -3.5333 
274 4.58875 2.90144 -19.1576 -3.57441 -2.89736 -2.50547 -0.380551 -0.051884 0.835416 -3.53329 
275 0.582743 4.28802 -17.88 -3.53565 -4.72396 -3.10781 -0.167476 -0.91243 0.196493 -3.53361 
276 0.530661 4.29535 -15.3237 -3.5016 -4.72957 -3.16881 -0.156246 -0.914746 0.166386 -3.53362 
277 0.8372 6.44591 -16.5995 -2.92916 -4.36519 -2.74948 -0.192873 -1.34199 0.262824 -3.53366 
278 2.70092 4.7114 -16.6023 -2.88843 -3.54794 -2.56631 -0.365358 -0.766767 0.148084 -3.53332 
279 0.758975 6.45646 -14.0444 -2.89306 -4.35768 -2.78883 -0.177852 -1.34366 0.224229 -3.53371 
280 4.55417 2.95747 -16.6007 -3.54807 -2.88365 -2.57159 -0.403687 -0.080136 0.819557 -3.53331 
281 2.39831 2.56594 -15.3243 -3.4972 -3.513 -2.89839 -0.388474 -0.277569 0.306144 -3.52978 
282 2.36721 2.5953 -12.7688 -3.47559 -3.51473 -2.9495 -0.397737 -0.288489 0.293085 -3.5298 
283 2.64402 4.74465 -14.0466 -2.8553 -3.54613 -2.6182 -0.369144 -0.774987 0.122885 -3.53334 
284 4.51866 3.01301 -14.0449 -3.52218 -2.87452 -2.62212 -0.423639 -0.104889 0.806435 -3.53333 
285 0.478426 4.30198 -12.7685 -3.47305 -4.73299 -3.21444 -0.143602 -0.917067 0.139568 -3.53363 
286 0.426046 4.30791 -10.2141 -3.44978 -4.73541 -3.2479 -0.130048 -0.919592 0.115544 -3.53363 
287 0.680514 6.46591 -11.4902 -2.86357 -4.35153 -2.81749 -0.161951 -1.34581 0.189466 -3.53374 
288 2.58653 4.77708 -11.4918 -2.82626 -3.54621 -2.65741 -0.369919 -0.781732 0.100546 -3.53335 
289 0.601826 6.47429 -8.93654 -2.83942 -4.3471 -2.83789 -0.145592 -1.34845 0.157816 -3.53377 
290 4.48226 3.06806 -11.4901 -3.49777 -2.86992 -2.66005 -0.440828 -0.126757 0.79559 -3.53334 
291 2.33564 2.62422 -10.2141 -3.45541 -3.51801 -2.98756 -0.404556 -0.298041 0.281748 -3.52981 
292 2.30362 2.65273 -7.66007 -3.43687 -3.52278 -3.0151 -0.40943 -0.306617 0.27172 -3.52982 
293 2.52848 4.80868 -8.93767 -2.80099 -3.54814 -2.6864 -0.368302 -0.787456 0.0804131 -3.53335 
294 4.44501 3.12262 -8.93598 -3.47515 -2.86939 -2.68781 -0.455709 -0.146396 0.786505 -3.53335 
295 0.373526 4.31314 -7.6603 -3.431 -4.73743 -3.27169 -0.115994 -0.922348 0.0937598 -3.53364 
296 0.32087 4.31769 -5.10689 -3.41566 -4.73927 -3.28763 -0.101749 -0.925141 0.0736512 -3.53364 
297 0.522917 6.48161 -6.38332 -2.81917 -4.34438 -2.85175 -0.129051 -1.35131 0.128555 -3.53379 
298 2.46989 4.83949 -6.38405 -2.77883 -3.55169 -2.70707 -0.364823 -0.792419 0.0618996 -3.53335 
299 0.443805 6.48787 -3.8304 -2.80157 -4.34316 -2.86024 -0.112434 -1.35393 0.100992 -3.5338 
300 4.40692 3.17667 -6.38236 -3.45426 -2.87235 -2.70727 -0.468691 -0.164377 0.778681 -3.53335 
301 2.27116 2.68081 -5.10649 -3.41981 -3.52882 -3.03403 -0.412803 -0.314475 0.262629 -3.52983 
302 2.23827 2.70846 -2.5532 -3.40389 -3.53592 -3.04569 -0.414988 -0.32173 0.254165 -3.52983 
303 2.4108 4.86949 -3.83076 -2.75903 -3.55666 -2.72079 -0.359853 -0.796687 0.0445196 -3.53336 
304 4.36802 3.23022 -3.82907 -3.43482 -2.87827 -2.71976 -0.480061 -0.181131 0.771673 -3.53336 
305 0.268088 4.32157 -2.55376 -3.4028 -4.74098 -3.29691 -0.087498 -0.927571 0.0546628 -3.53365 
306 0.364528 6.49311 -1.27767 -2.78601 -4.34326 -2.864 -0.0956832 -1.3557 0.0744799 -3.53381 
307 2.35123 4.8987 -1.27769 -2.74105 -3.56294 -2.72838 -0.353535 -0.800176 0.0278837 -3.53336 
308 4.32834 3.28324 -1.27599 -3.41657 -2.88683 -2.72611 -0.489932 -0.196962 0.765109 -3.53336 
309 2.43623 7.09098 -0.00153009 -2.21618 -3.36013 -2.40116 -0.317216 -1.20566 -0.187847 -3.5329 
310 0.434482 8.66815 -0.00180047 -2.24778 -4.01607 -2.4964 -0.0993513 -1.74213 0.0832268 -3.53357 