ITEM: TIMESTEP
1061
ITEM: NUMBER OF ATOMS
37664
ITEM: BOX BOUNDS ff ff ff
-100 100
-100 100
-156.15 156.15
ITEM: ATOMS id x y z v_peratom_sxx v_peratom_syy v_peratom_szz v_peratom_sxy v_peratom_sxz v_peratom_syz c_atomPE 
1 -0.003658 -0.0021918 0.00105037 -5.1791 -5.17178 -9.53862 0.000288549 -0.011431 -0.027677 -3.51528 
2 -0.00396474 -0.00208026 2.5543 -5.1784 -5.17099 -9.53769 -0.000132865 -0.0136758 -0.0264963 -3.51527 
3 -0.00429969 -0.00191352 5.10761 -5.1732 -5.16609 -9.52703 -0.000811435 -0.0140363 -0.0252502 -3.51532 
4 -0.00464886 -0.00169634 7.66113 -5.16265 -5.15645 -9.50514 -0.00173383 -0.0119723 -0.024083 -3.51541 
5 -0.00498708 -0.00144333 10.215 -5.14582 -5.14123 -9.4699 -0.00280631 -0.00735657 -0.022994 -3.51557 
6 -0.00528134 -0.00117488 12.7694 -5.12162 -5.11927 -9.41866 -0.00387313 -0.000560632 -0.0218349 -3.5158 
7 -0.0054971 -0.000911345 15.3246 -5.08874 -5.089 -9.34825 -0.00476621 0.0076212 -0.0203896 -3.51612 
8 -0.00560555 -0.000668305 17.8809 -5.04534 -5.04826 -9.25478 -0.00535766 0.0161768 -0.0184847 -3.51655 
9 -0.00558916 -0.000454294 20.4386 -4.98873 -4.99404 -9.13359 -0.00559066 0.0241155 -0.0160717 -3.5171 
10 -0.00544418 -0.000271338 22.998 -4.91503 -4.92219 -8.97921 -0.00548245 0.0306578 -0.0132555 -3.5178 
11 -0.00517988 -0.000117309 25.5597 -4.81899 -4.82733 -8.78602 -0.00510702 0.0353384 -0.0102725 -3.51866 
12 -0.00481537 1.11456e-05 28.124 -4.6942 -4.70308 -8.54988 -0.0045679 0.038025 -0.0074314 -3.51969 
13 -0.0043749 0.000116275 30.6914 -4.53471 -4.54355 -8.27123 -0.00396962 0.0388723 -0.00503489 -3.52089 
14 -0.00388287 0.000198273 33.262 -4.33876 -4.34715 -7.95882 -0.003395 0.0382397 -0.00329894 -3.5222 
15 -0.00335966 0.000255695 35.8358 -4.11408 -4.12178 -7.63015 -0.00289325 0.0365956 -0.0023018 -3.52347 
16 -0.00281912 0.000286369 38.4125 -3.87665 -3.88353 -7.3036 -0.00247991 0.0344164 -0.00198994 -3.52458 
17 -0.00226744 0.000287762 40.9917 -3.63805 -3.64406 -6.98562 -0.00214325 0.0321151 -0.00223852 -3.52548 
18 -0.00170082 0.000256855 43.5731 -3.39924 -3.40438 -6.66345 -0.00184863 0.0300831 -0.00290496 -3.5262 
19 -0.00110135 0.000189788 46.1569 -3.13502 -3.13917 -6.30034 -0.00152597 0.0286957 -0.00383664 -3.52695 
20 -0.000439696 7.86002e-05 48.7435 -2.75181 -2.75403 -5.86095 -0.000847614 0.0277748 -0.00498043 -3.52782 
21 5.95933e-07 -4.11185e-08 51.3317 -1.92305 -1.92289 -4.91973 7.93961e-05 -0.00140171 0.000245899 -3.53203 
22 4.01304e-07 -1.42881e-06 53.9138 -0.851919 -0.851928 -8.91778 7.79774e-07 -2.96892e-05 -7.14116e-05 -3.48169 
23 8.71386e-07 -1.98378e-06 56.3885 1.68559 1.68559 1.87686 -1.62566e-05 2.47699e-05 -1.60658e-07 -2.55581 
24 -1.23087e-07 -1.12453e-06 -53.8876 -2.60693 -2.60695 -6.54959 -1.86314e-05 1.03706e-05 -3.27746e-05 -3.40183 
25 1.02659e-07 -1.55837e-06 -51.3239 -2.07915 -2.07934 -5.57947 -0.000269972 0.000645125 0.00144528 -3.52873 
26 -0.000163813 -0.000411128 -48.7462 -2.69458 -2.69188 -6.14765 0.00354493 -0.0103986 -0.0256782 -3.5264 
27 -0.000381283 -0.000989941 -46.1646 -3.02176 -3.01696 -6.3477 0.00626965 -0.00855848 -0.0240169 -3.52678 
28 -0.000539988 -0.00143102 -43.5822 -3.30345 -3.2968 -6.60812 0.00686885 -0.00515201 -0.0227877 -3.52635 
29 -0.000641798 -0.00176789 -41.0007 -3.55919 -3.55049 -6.89661 0.00676908 -0.0013891 -0.0219645 -3.52574 
30 -0.000706036 -0.00201953 -38.421 -3.80981 -3.79906 -7.20557 0.00619279 0.00239657 -0.0213834 -3.52491 
31 -0.000755066 -0.00219753 -35.8434 -4.05655 -4.04398 -7.53093 0.00525826 0.00586116 -0.0209606 -3.52384 
32 -0.000811887 -0.00231212 -33.2686 -4.28994 -4.27606 -7.86151 0.00410314 0.00863724 -0.0207194 -3.52261 
33 -0.000896896 -0.00237487 -30.6969 -4.49688 -4.48235 -8.17967 0.00290002 0.0104436 -0.020738 -3.52132 
34 -0.00102398 -0.00239869 -28.1284 -4.66883 -4.65435 -8.46825 0.00182367 0.0111857 -0.0210885 -3.5201 
35 -0.00119777 -0.00239627 -25.5629 -4.80482 -4.791 -8.71669 0.0010038 0.0109881 -0.0217877 -3.51901 
36 -0.00141333 -0.00237852 -23.0002 -4.9089 -4.89619 -8.92204 0.000492867 0.0101326 -0.0227814 -3.5181 
37 -0.00165837 -0.00235385 -20.4399 -4.98699 -4.9756 -9.08671 0.000263612 0.00892817 -0.0239678 -3.51736 
38 -0.00191736 -0.00232853 -17.8814 -5.04491 -5.03484 -9.21579 0.000234998 0.00757623 -0.0252338 -3.51678 
39 -0.00217623 -0.00230737 -15.3245 -5.08756 -5.07866 -9.31507 0.000311494 0.00609325 -0.0264753 -3.51632 
40 -0.00242603 -0.00229366 -12.7687 -5.11878 -5.1108 -9.39008 0.00041666 0.00432728 -0.0275927 -3.51597 
41 -0.00266469 -0.00228803 -10.2138 -5.14144 -5.13409 -9.44564 0.000507072 0.00206036 -0.0284743 -3.51572 
42 -0.00289688 -0.00228666 -7.65953 -5.15764 -5.15061 -9.48568 0.000564231 -0.000848228 -0.028995 -3.51553 
43 -0.00313218 -0.0022801 -5.10574 -5.16881 -5.16185 -9.51328 0.000573014 -0.00433472 -0.0290454 -3.5154 
44 -0.00338237 -0.00225392 -2.55226 -5.17586 -5.16875 -9.53054 0.000500546 -0.00806208 -0.0285836 -3.51532 
45 0.092455 2.15788 1.27692 -4.05633 -5.14036 -3.83752 -0.0511249 -0.452261 0.00377527 -3.52907 
46 0.0657734 2.15902 3.83011 -4.05012 -5.13949 -3.8317 -0.0397813 -0.452474 -0.00538058 -3.52908 
47 0.0390894 2.15987 6.38343 -4.04462 -5.13629 -3.81755 -0.0284035 -0.45107 -0.0149566 -3.5291 
48 0.0124551 2.16042 8.93703 -4.0406 -5.13055 -3.7938 -0.01676 -0.448108 -0.0252056 -3.52913 
49 -0.0140739 2.16064 11.4911 -4.03906 -5.12188 -3.75883 -0.00468634 -0.443988 -0.0363101 -3.52918 
50 -0.0404482 2.16051 14.0458 -4.04097 -5.10954 -3.71055 0.00779592 -0.439314 -0.0484532 -3.52922 
51 -0.066632 2.16001 16.6015 -4.04679 -5.09233 -3.64635 0.0204241 -0.434709 -0.0618868 -3.52928 
52 -0.0926077 2.15915 19.1583 -4.0562 -5.06829 -3.56291 0.032712 -0.430661 -0.076947 -3.52935 
53 -0.118375 2.15793 21.7168 -4.06772 -5.03454 -3.45613 0.0440107 -0.427441 -0.0939762 -3.52943 
54 -0.14395 2.15636 24.2771 -4.07814 -4.9868 -3.32141 0.0535915 -0.425099 -0.113108 -3.52953 
55 -0.169357 2.15449 26.8399 -4.08163 -4.91911 -3.15437 0.060754 -0.423487 -0.133864 -3.52967 
56 -0.194626 2.15238 29.4055 -4.06874 -4.82373 -2.95253 0.065002 -0.422316 -0.154588 -3.52986 
57 -0.219781 2.15012 31.9742 -4.02615 -4.69256 -2.71799 0.0663286 -0.421181 -0.172145 -3.53012 
58 -0.244825 2.1478 34.5463 -3.94001 -4.52117 -2.45974 0.0655287 -0.419583 -0.183037 -3.53047 
59 -0.269736 2.14548 37.1216 -3.80473 -4.31496 -2.19199 0.0641577 -0.416937 -0.186983 -3.53087 
60 -0.294474 2.14307 39.6995 -3.62861 -4.08862 -1.92623 0.0637832 -0.412772 -0.189017 -3.53128 
61 -0.319014 2.1405 42.2798 -3.42356 -3.85288 -1.66277 0.065121 -0.407181 -0.195236 -3.53164 
62 -0.343391 2.13767 44.8621 -3.19606 -3.60459 -1.39023 0.0674169 -0.400733 -0.21221 -3.53193 
63 -0.367766 2.13483 47.4464 -2.91616 -3.29364 -1.10604 0.0673389 -0.395857 -0.231648 -3.53223 
64 -0.392512 2.13371 50.032 -2.43439 -2.80056 -0.49516 0.060538 -0.414719 -0.201056 -3.53323 
65 -0.418483 2.1304 52.6263 -1.76578 -2.00551 -0.561405 0.0455028 -0.308929 -0.730008 -3.52457 
66 -0.44812 2.14653 55.1778 6.9766 7.73843 2.43089 0.0330178 -0.597321 1.77022 -3.02528 
67 0.649859 2.05055 -55.162 1.38945 0.842393 -0.678349 -0.188252 -0.0991976 1.20762 -3.26036 
68 0.633027 2.08274 -52.6122 -1.11196 -2.21867 -0.457719 -0.374492 -0.489286 -0.161479 -3.53566 
69 0.607028 2.08678 -50.0319 -2.00265 -2.55485 -0.87142 -0.170228 -0.429382 0.0815485 -3.53399 
70 0.581337 2.08836 -47.4532 -2.63783 -3.07121 -1.20654 -0.127119 -0.403012 0.155601 -3.5329 
71 0.556547 2.09194 -44.8711 -3.05921 -3.4405 -1.36659 -0.106868 -0.397389 0.199047 -3.53225 
72 0.531942 2.09627 -42.2892 -3.35818 -3.726 -1.59556 -0.0984002 -0.401123 0.21065 -3.53183 
73 0.507226 2.10082 -39.7085 -3.60191 -3.98199 -1.84625 -0.097276 -0.406488 0.216597 -3.53141 
74 0.482305 2.10545 -37.1298 -3.80425 -4.22004 -2.10993 -0.101736 -0.411414 0.220107 -3.53097 
75 0.457176 2.11016 -34.5537 -3.96203 -4.43506 -2.37946 -0.11013 -0.415534 0.218843 -3.53055 
76 0.431868 2.11496 -31.9806 -4.07096 -4.61727 -2.64275 -0.120123 -0.419156 0.210095 -3.53018 
77 0.406409 2.11979 -29.4108 -4.13436 -4.76142 -2.88609 -0.129184 -0.422574 0.193855 -3.52988 
78 0.380813 2.12455 -26.8442 -4.16262 -4.86965 -3.09943 -0.135456 -0.425821 0.172709 -3.52965 
79 0.355087 2.12913 -24.2805 -4.16767 -4.94831 -3.27853 -0.138127 -0.428803 0.149724 -3.52948 
80 0.329237 2.13348 -21.7193 -4.15941 -5.0046 -3.42396 -0.137211 -0.43145 0.127162 -3.52936 
81 0.303276 2.13752 -19.1602 -4.14487 -5.04479 -3.53906 -0.133166 -0.433778 0.106274 -3.52927 
82 0.277216 2.14124 -16.6028 -4.12848 -5.07365 -3.62832 -0.126597 -0.435898 0.0875494 -3.52921 
83 0.25107 2.14463 -14.0466 -4.1128 -5.09461 -3.69626 -0.118099 -0.437987 0.0710231 -3.52916 
84 0.224842 2.14766 -11.4914 -4.09905 -5.11 -3.74699 -0.108194 -0.440228 0.0565128 -3.52912 
85 0.198533 2.15035 -8.937 -4.08752 -5.12137 -3.78395 -0.0973301 -0.442737 0.0437545 -3.5291 
86 0.17214 2.1527 -6.3831 -4.07801 -5.12967 -3.80986 -0.0858994 -0.445491 0.0324529 -3.52908 
87 0.145659 2.15473 -3.82957 -4.06999 -5.13546 -3.82673 -0.0742382 -0.448278 0.0222796 -3.52907 
88 0.119093 2.15645 -1.27627 -4.06291 -5.139 -3.83579 -0.0626025 -0.450704 0.0128586 -3.52906 
89 0.215424 4.32455 -0.000168117 -3.39675 -4.74667 -3.30058 -0.0738867 -0.932564 0.0381011 -3.53364 
90 0.285226 6.49698 1.27574 -2.77664 -4.34865 -2.86384 -0.0792489 -1.36034 0.0489738 -3.53381 
91 2.20519 2.73546 0.000426301 -3.39195 -3.54838 -3.0521 -0.41644 -0.329093 0.248148 -3.52982 
92 2.17136 2.76217 2.55357 -3.37646 -3.55688 -3.0509 -0.416408 -0.335378 0.240231 -3.52983 
93 2.29131 4.92679 1.27597 -2.72851 -3.57416 -2.73154 -0.346233 -0.805421 0.0122968 -3.53335 
94 4.28803 3.33543 1.27761 -3.40194 -2.90202 -2.72838 -0.498848 -0.212913 0.76045 -3.53335 
95 0.16229 4.327 2.5528 -3.38578 -4.7472 -3.29787 -0.0593739 -0.932842 0.0199576 -3.53365 
96 0.109153 4.32879 5.10583 -3.37733 -4.74735 -3.28888 -0.0444865 -0.931279 0.00147679 -3.53366 
97 0.205602 6.50005 3.82843 -2.76436 -4.35011 -2.85836 -0.061343 -1.35895 0.0229879 -3.53382 
98 2.23074 4.95429 3.82901 -2.71258 -3.58254 -2.72738 -0.336786 -0.806912 -0.00371777 -3.53335 
99 0.126073 6.5021 6.38124 -2.75739 -4.35284 -2.84803 -0.0426854 -1.35616 -0.00357865 -3.53383 
100 4.24674 3.3873 3.83069 -3.38477 -2.91489 -2.72316 -0.50533 -0.227602 0.753897 -3.53336 
101 2.13717 2.78843 5.10681 -3.36164 -3.56655 -3.04303 -0.414861 -0.340778 0.232385 -3.52983 
102 2.10267 2.8142 7.66027 -3.34818 -3.57773 -3.02763 -0.411277 -0.345428 0.224436 -3.52983 
103 2.16988 4.98095 6.38221 -2.69967 -3.59256 -2.71678 -0.3252 -0.807343 -0.0198296 -3.53336 
104 4.20479 3.43856 6.38393 -3.36928 -2.93051 -2.71171 -0.509461 -0.2418 0.747103 -3.53336 
105 0.0560979 4.32993 7.65906 -3.373 -4.74729 -3.27294 -0.0289677 -0.928133 -0.0177389 -3.53368 
106 0.00320562 4.33038 10.2127 -3.37455 -4.74711 -3.24909 -0.0127051 -0.924015 -0.0380669 -3.53369 
107 0.0467431 6.50311 8.93432 -2.75778 -4.35719 -2.83237 -0.0233066 -1.35272 -0.0312603 -3.53383 
108 2.10878 5.00672 8.93568 -2.69124 -3.6044 -2.69892 -0.311155 -0.807183 -0.036497 -3.53336 
109 -0.0323085 6.50305 11.4878 -2.76711 -4.3634 -2.81064 -0.00343432 -1.34948 -0.0606445 -3.53382 
110 4.16223 3.48917 8.93747 -3.35633 -2.9492 -2.69317 -0.510752 -0.255887 0.739889 -3.53336 
111 2.06792 2.83946 10.2141 -3.33704 -3.59057 -3.0034 -0.405149 -0.34968 0.216142 -3.52983 
112 2.03296 2.86417 12.7685 -3.32918 -3.60495 -2.96866 -0.396108 -0.354094 0.207151 -3.52982 
113 2.04752 5.03158 11.4896 -2.68872 -3.61802 -2.67268 -0.294503 -0.807124 -0.0543293 -3.53336 
114 4.11908 3.5391 11.4914 -3.34684 -2.97117 -2.66634 -0.508783 -0.270417 0.731993 -3.53336 
115 -0.0494589 4.33013 12.7668 -3.38349 -4.74671 -3.21608 0.00418834 -0.919678 -0.0599284 -3.5337 
116 -0.101854 4.32915 15.3217 -3.40074 -4.74564 -3.17211 0.0213761 -0.915781 -0.0838364 -3.53371 
117 -0.111034 6.5019 14.0419 -2.78627 -4.37152 -2.78172 0.0165539 -1.34716 -0.0924084 -3.5338 
118 1.98614 5.05549 14.0442 -2.6932 -3.63313 -2.63662 -0.275265 -0.807955 -0.0740855 -3.53336 
119 -0.189415 6.49964 16.5968 -2.8155 -4.38122 -2.74384 0.0362067 -1.34616 -0.127323 -3.53376 
120 4.07539 3.58831 14.0461 -3.34158 -2.99644 -2.62963 -0.503231 -0.286106 0.723016 -3.53336 
121 1.99781 2.88831 15.3237 -3.32533 -3.62035 -2.92133 -0.383958 -0.359368 0.196979 -3.52981 
122 1.96251 2.91186 17.8799 -3.3257 -3.63584 -2.85882 -0.36865 -0.366244 0.185022 -3.52979 
123 1.92466 5.07843 16.5996 -2.70527 -3.64912 -2.58883 -0.253573 -0.810443 -0.0966343 -3.53335 
124 4.03117 3.63677 16.6015 -3.34099 -3.02478 -2.58105 -0.493854 -0.303783 0.71239 -3.53336 
125 -0.153962 4.32745 17.8776 -3.42649 -4.74293 -3.11473 0.0383554 -0.912737 -0.110392 -3.53371 
126 -0.205785 4.32501 20.4348 -3.46009 -4.73684 -3.04066 0.0545298 -0.910662 -0.140202 -3.5337 
127 -0.267456 6.49626 19.1527 -2.8544 -4.39166 -2.69446 0.055072 -1.34654 -0.166199 -3.53371 
128 1.86308 5.10036 19.1561 -2.72495 -3.66498 -2.52688 -0.229605 -0.815244 -0.122873 -3.53334 
129 -0.34517 6.49178 21.7099 -2.90201 -4.40118 -2.63001 0.0727481 -1.34797 -0.209741 -3.53364 
130 3.98641 3.68445 19.158 -3.34505 -3.05562 -2.51816 -0.480466 -0.324314 0.699391 -3.53334 
131 1.92704 2.93481 20.4374 -3.32976 -3.64985 -2.77803 -0.350236 -0.375397 0.170625 -3.52976 
132 1.8914 2.95715 22.9967 -3.33583 -3.65995 -2.67535 -0.328868 -0.387316 0.153214 -3.52973 
133 1.80139 5.12127 21.7141 -2.75153 -3.67909 -2.44775 -0.203563 -0.822861 -0.153583 -3.53331 
134 3.94112 3.73132 21.716 -3.35301 -3.0878 -2.43807 -0.462952 -0.348494 0.683203 -3.53332 
135 -0.25734 4.32187 22.9936 -3.49977 -4.72453 -2.94568 0.0692614 -0.909404 -0.173675 -3.5337 
136 -0.308653 4.31806 25.5544 -3.54205 -4.70148 -2.82487 0.0818919 -0.908631 -0.210627 -3.5337 
137 -0.422575 6.48623 24.2687 -2.95646 -4.40681 -2.54578 0.0888945 -1.34986 -0.258238 -3.53357 
138 1.73957 5.14117 24.2738 -2.7833 -3.68891 -2.3479 -0.17574 -0.833582 -0.189155 -3.53328 
139 -0.499684 6.47969 26.8296 -3.01419 -4.40352 -2.43599 0.103185 -1.35145 -0.311012 -3.53351 
140 3.89528 3.77736 24.2756 -3.36313 -3.11926 -2.33754 -0.44137 -0.376847 0.663091 -3.53329 
141 1.8556 2.97889 25.558 -3.34057 -3.66228 -2.54697 -0.304884 -0.402082 0.132578 -3.52968 
142 1.81963 3.00008 28.1218 -3.33795 -3.65084 -2.38955 -0.279034 -0.418987 0.109376 -3.52962 
143 1.67762 5.16008 26.8357 -2.81685 -3.69043 -2.22363 -0.146707 -0.847338 -0.229108 -3.53323 
144 3.84893 3.82258 26.8375 -3.37197 -3.14631 -2.21317 -0.416186 -0.409238 0.638751 -3.53324 
145 -0.359753 4.31368 28.1177 -3.58054 -4.66084 -2.67329 0.0917566 -0.907953 -0.249655 -3.53373 
146 -0.41067 4.30887 30.684 -3.60434 -4.59307 -2.4876 0.098269 -0.906974 -0.287441 -3.53381 
147 -0.576513 6.47232 29.393 -3.06867 -4.38335 -2.29443 0.115193 -1.35207 -0.365621 -3.53348 
148 1.61557 5.17813 29.4002 -2.84588 -3.67749 -2.0718 -0.117636 -0.86332 -0.271314 -3.53318 
149 -0.653072 6.4644 31.9595 -3.10839 -4.3344 -2.11633 0.124258 -1.35119 -0.417103 -3.5335 
150 3.80214 3.86703 29.4019 -3.37345 -3.16265 -2.06187 -0.388632 -0.444189 0.610943 -3.53318 
151 1.78357 3.02083 30.6886 -3.31825 -3.61684 -2.20158 -0.252799 -0.435971 0.0858687 -3.52957 
152 1.74754 3.0413 33.2586 -3.26777 -3.54909 -1.98523 -0.228553 -0.44937 0.0663066 -3.52956 
153 1.55348 5.19554 31.9678 -2.85957 -3.64107 -1.8909 -0.0906282 -0.879292 -0.311137 -3.53312 
154 3.75508 3.91086 31.9693 -3.35731 -3.15825 -1.88181 -0.361005 -0.478035 0.582351 -3.53311 
155 -0.461415 4.30387 33.2536 -3.59728 -4.4868 -2.26896 0.101198 -0.905154 -0.318792 -3.53397 
156 -0.511961 4.29887 35.8266 -3.54127 -4.33307 -2.02607 0.101134 -0.901524 -0.339125 -3.53423 
157 -0.729358 6.45633 34.5294 -3.11547 -4.24114 -1.90197 0.129574 -1.34827 -0.458358 -3.53363 
158 1.49151 5.21265 34.5386 -2.84147 -3.5691 -1.68266 -0.0686139 -0.890929 -0.341513 -3.53309 
159 -0.805308 6.44846 37.103 -3.06835 -4.08889 -1.66155 0.130858 -1.34193 -0.483655 -3.53389 
160 3.70805 3.95431 34.54 -3.30818 -3.11911 -1.67415 -0.336491 -0.504847 0.557981 -3.53308 
161 1.7117 3.06171 35.832 -3.17228 -3.43755 -1.74774 -0.208955 -0.455207 0.0552718 -3.52962 
162 1.6762 3.08217 38.4085 -3.02601 -3.28042 -1.49991 -0.195109 -0.452985 0.0524518 -3.52978 
163 1.42989 5.22988 37.1129 -2.77238 -3.44881 -1.45401 -0.0542509 -0.892868 -0.35642 -3.53314 
164 3.66142 3.99766 37.1141 -3.20771 -3.03089 -1.44558 -0.317882 -0.519123 0.543041 -3.53313 
165 -0.562233 4.29395 38.4028 -3.42723 -4.13423 -1.77414 0.0997683 -0.894827 -0.349913 -3.53458 
166 -0.612141 4.28895 40.9816 -3.26256 -3.90635 -1.52564 0.0993465 -0.884457 -0.360099 -3.53492 
167 -0.880801 6.44091 39.6798 -2.95525 -3.87722 -1.41504 0.129383 -1.33036 -0.49603 -3.53425 
168 1.36886 5.2474 39.6902 -2.64161 -3.27551 -1.21682 -0.0479011 -0.883741 -0.359043 -3.53331 
169 -0.955727 6.43339 42.259 -2.78448 -3.62632 -1.1803 0.127883 -1.31347 -0.508201 -3.53461 
170 3.61542 4.04107 39.6913 -3.04551 -2.88854 -1.2085 -0.305573 -0.521984 0.536187 -3.5333 
171 1.64104 3.1026 40.9876 -2.83723 -3.08662 -1.24952 -0.185322 -0.447873 0.0499079 -3.53 
172 1.60614 3.12286 43.5687 -2.61589 -2.86429 -0.994264 -0.177058 -0.446345 0.0394045 -3.53027 
173 1.30846 5.26508 42.2698 -2.45554 -3.05843 -0.98125 -0.0467264 -0.869971 -0.363729 -3.53355 
174 3.57001 4.08445 42.2709 -2.82894 -2.70056 -0.974693 -0.29737 -0.523173 0.5266 -3.53354 
175 -0.66167 4.28367 43.5624 -3.05844 -3.65995 -1.28016 0.101052 -0.871214 -0.378019 -3.53523 
176 -0.710989 4.2781 46.1447 -2.82684 -3.39336 -1.01799 0.10412 -0.857282 -0.408941 -3.53549 
177 -1.03015 6.42569 44.8395 -2.56314 -3.34338 -0.964248 0.127786 -1.29352 -0.525339 -3.53495 
178 1.24856 5.28276 44.851 -2.22145 -2.80252 -0.748866 -0.0489596 -0.859983 -0.381911 -3.53386 
179 -1.10443 6.41816 47.4204 -2.2985 -3.01768 -0.779328 0.130001 -1.27514 -0.537456 -3.53528 
180 3.52498 4.12774 44.852 -2.56335 -2.47449 -0.749939 -0.290616 -0.531553 0.505768 -3.53383 
181 1.57129 3.14294 46.1516 -2.36657 -2.61628 -0.716667 -0.169932 -0.455898 0.0127672 -3.53054 
182 1.53636 3.16327 48.7364 -2.09018 -2.36097 -0.345952 -0.182721 -0.478768 -0.0257075 -3.53015 
183 1.1887 5.30045 47.4331 -1.94588 -2.50561 -0.51798 -0.0628562 -0.866558 -0.426426 -3.53411 
184 3.48005 4.171 47.4338 -2.24254 -2.22061 -0.541853 -0.285304 -0.557901 0.462429 -3.53403 
185 -0.760608 4.27328 48.7285 -2.60409 -3.07517 -0.672102 0.0974617 -0.849718 -0.413023 -3.53515 
186 -0.811621 4.26877 51.3169 -1.98849 -2.35115 0.310471 0.0838813 -0.841703 -0.653449 -3.53805 
187 -1.17889 6.41384 50.0002 -2.05973 -2.54266 -0.336628 0.0873694 -1.28007 -0.616623 -3.53572 
188 1.12775 5.31799 50.0156 -1.56907 -2.07879 -0.020614 -0.110967 -0.945822 -0.595039 -3.53485 
189 -1.25707 6.40546 52.5877 -1.61234 -2.48688 0.643303 0.175759 -1.31617 -0.613144 -3.53282 
190 3.43505 4.21346 50.0156 -1.75822 -1.85271 -0.0377329 -0.309214 -0.668224 0.314401 -3.53491 
191 1.50027 3.18358 51.3264 -1.43157 -1.70132 0.658636 -0.172625 -0.54836 -0.13337 -3.53273 
192 1.46587 3.20964 53.9052 0.026701 0.953992 -0.795872 0.566307 -0.560985 0.138969 -3.37565 
193 1.06597 5.33731 52.6041 -1.24922 -1.89855 0.441464 -0.236973 -0.801325 -0.410822 -3.52779 
194 3.38747 4.26008 52.6041 -1.41016 -1.71357 0.389814 -0.390655 -0.639442 0.587324 -3.52746 
195 -0.866323 4.2769 53.8949 -0.0508679 -0.206142 -1.18049 0.0793789 -1.26166 1.02744 -3.38132 
196 1.3298 4.1174 -56.3442 5.06942 2.90559 1.60242 -1.25473 -0.273892 0.110265 -2.79034 
197 -1.33605 6.40133 55.1665 4.18004 2.79746 1.28995 0.31992 -1.5232 0.197886 -3.26107 
198 1.00488 5.36129 55.1754 5.6421 6.63186 2.70775 0.369869 -0.636457 -0.0326089 -3.15047 
199 1.98371 6.26223 -55.1334 6.93989 9.11553 2.92918 0.134186 -0.847908 -0.525659 -3.02309 
200 3.34328 4.30996 55.1754 5.53065 7.35769 2.86912 0.118702 -0.278621 0.562641 -3.15115 
201 2.87095 2.09325 -56.362 4.04253 6.0065 1.88101 -3.16453 0.252647 0.341793 -2.79939 
202 2.84551 2.1252 -53.8874 0.165024 0.763306 -3.02645 -0.982107 -0.732815 -0.162365 -3.51266 
203 3.53831 4.21674 -55.1525 6.03166 6.27392 1.75936 0.302437 -1.2195 -0.0444712 -3.1433 
204 5.07312 2.13635 -55.1525 6.04997 7.03887 2.00315 0.446064 -0.528119 0.0805386 -3.14511 
205 1.29262 4.16451 -53.8815 0.861271 -0.348225 -3.67504 -0.408873 -0.573882 0.839001 -3.51412 
206 1.24176 4.17585 -51.3147 -1.28679 -1.91098 -0.373673 -0.214932 -0.880582 0.220127 -3.53903 
207 1.90264 6.26187 -52.5941 -0.917829 -1.4568 -0.573006 -0.184179 -1.16804 0.819996 -3.52792 
208 3.4607 4.22944 -52.6036 -0.748883 -0.925834 0.0954351 -0.677537 -0.496073 0.191363 -3.53019 
209 1.82403 6.27282 -50.0101 -1.6425 -2.32533 -0.262149 -0.200415 -1.28154 0.433128 -3.53673 
210 5.01221 2.17771 -52.6036 -1.34185 -0.348571 0.054611 -0.502578 0.0191958 0.991503 -3.52952 
211 2.80522 2.14769 -51.32 -1.10368 -0.946864 -0.1127 -0.278081 -0.333023 0.26177 -3.53414 
212 2.77226 2.17461 -48.7405 -1.96854 -1.8366 -0.545537 -0.29164 -0.223323 0.338212 -3.53087 
213 3.40036 4.25787 -50.02 -1.43134 -1.65383 -0.138916 -0.408379 -0.708672 0.28645 -3.53496 
214 4.971 2.23184 -50.02 -1.84413 -1.27393 -0.113691 -0.296364 0.0210407 0.836047 -3.535 
215 1.18966 4.18043 -48.7355 -2.17795 -2.75551 -0.785633 -0.180422 -0.849952 0.284345 -3.5364 
216 1.13973 4.18651 -46.154 -2.63705 -3.19119 -0.973819 -0.165274 -0.833543 0.402278 -3.53604 
217 1.74859 6.27866 -47.4305 -2.10031 -2.83278 -0.673191 -0.213748 -1.24109 0.546519 -3.53588 
218 3.34501 4.2875 -47.4411 -1.89798 -2.2078 -0.561451 -0.301247 -0.639118 0.336112 -3.53414 
219 1.67465 6.29044 -44.8494 -2.4697 -3.19098 -0.861732 -0.201135 -1.24464 0.604786 -3.53533 
220 4.93481 2.28446 -47.4403 -2.3217 -1.78817 -0.540746 -0.212391 0.106033 0.865075 -3.53419 
221 2.74199 2.20191 -46.1593 -2.36447 -2.26779 -0.738806 -0.232064 -0.161204 0.392807 -3.53074 
222 2.71361 2.23054 -43.5775 -2.67681 -2.59065 -0.950335 -0.216269 -0.149816 0.412933 -3.53037 
223 3.29149 4.31968 -44.8604 -2.23382 -2.57301 -0.716775 -0.260932 -0.625087 0.371387 -3.53392 
224 4.9019 2.33752 -44.8595 -2.65697 -2.14335 -0.722022 -0.178395 0.143453 0.896244 -3.53392 
225 1.09056 4.19505 -43.572 -2.97566 -3.51151 -1.20187 -0.153111 -0.841434 0.427481 -3.53553 
226 1.0413 4.20429 -40.9909 -3.23533 -3.78676 -1.44316 -0.151189 -0.854428 0.433823 -3.53509 
227 1.60092 6.30393 -42.2683 -2.75194 -3.49747 -1.08895 -0.200792 -1.26237 0.620169 -3.53483 
228 3.2389 4.35333 -42.2794 -2.50725 -2.86953 -0.916863 -0.24414 -0.627442 0.388901 -3.5336 
229 1.52672 6.31809 -39.6884 -2.96255 -3.76473 -1.3329 -0.20793 -1.28143 0.623603 -3.53438 
230 4.87052 2.39145 -42.2785 -2.94026 -2.42578 -0.927764 -0.167888 0.155104 0.921169 -3.5336 
231 2.68577 2.2599 -40.9964 -2.93276 -2.85207 -1.18079 -0.213857 -0.147823 0.42668 -3.53006 
232 2.65803 2.28984 -38.4167 -3.14629 -3.06698 -1.42328 -0.218902 -0.147007 0.438005 -3.52981 
233 3.18655 4.38802 -39.6994 -2.72449 -3.10959 -1.14087 -0.238923 -0.632332 0.399146 -3.53333 
234 4.83972 2.44634 -39.6985 -3.17712 -2.64377 -1.15169 -0.168675 0.159826 0.942653 -3.53333 
235 0.991659 4.21378 -38.4114 -3.43476 -4.03123 -1.69436 -0.15648 -0.866723 0.434724 -3.53468 
236 0.941588 4.22349 -35.8343 -3.57569 -4.24169 -1.9502 -0.166127 -0.876566 0.429215 -3.53431 
237 1.4519 6.33275 -37.1107 -3.1047 -3.98838 -1.58522 -0.218822 -1.29718 0.618326 -3.53398 
238 3.13417 4.42364 -37.1215 -2.88596 -3.29327 -1.37501 -0.242441 -0.638634 0.401246 -3.53314 
239 1.37651 6.34792 -34.5362 -3.17941 -4.15739 -1.83224 -0.229216 -1.30918 0.599347 -3.53367 
240 4.80922 2.5022 -37.1205 -3.36462 -2.80023 -1.38451 -0.179029 0.15948 0.956362 -3.53314 
241 2.63028 2.32034 -35.8394 -3.31638 -3.23584 -1.67003 -0.230838 -0.148811 0.443671 -3.52963 
242 2.60251 2.3513 -33.2649 -3.43852 -3.35655 -1.91069 -0.24945 -0.156601 0.439825 -3.52955 
243 3.0817 4.46009 -34.5463 -2.98955 -3.4193 -1.60562 -0.254015 -0.649644 0.389962 -3.53306 
244 4.77893 2.5589 -34.5453 -3.49753 -2.89726 -1.61418 -0.199091 0.149091 0.957276 -3.53306 
245 0.891159 4.23341 -33.2603 -3.65761 -4.40921 -2.19925 -0.176763 -0.884229 0.413206 -3.53401 
246 0.840447 4.24346 -30.6897 -3.68805 -4.53107 -2.42797 -0.185387 -0.890568 0.385629 -3.5338 
247 1.30066 6.36346 -31.9652 -3.19677 -4.26979 -2.05774 -0.236068 -1.31854 0.56432 -3.53349 
248 3.02903 4.49708 -31.9745 -3.04008 -3.49495 -1.82004 -0.271959 -0.666358 0.364124 -3.53307 
249 1.22443 6.37902 -29.3977 -3.17469 -4.33533 -2.25068 -0.238352 -1.32588 0.516786 -3.53342 
250 4.7487 2.61617 -31.9733 -3.57834 -2.94429 -1.82848 -0.227302 0.126226 0.945288 -3.53306 
251 2.57464 2.38256 -30.6938 -3.51417 -3.4334 -2.13397 -0.272956 -0.171038 0.426249 -3.52954 
252 2.54651 2.41388 -28.1258 -3.55189 -3.4769 -2.33146 -0.298432 -0.189765 0.406275 -3.52957 
253 2.976 4.53418 -29.4059 -3.05004 -3.53428 -2.00997 -0.293289 -0.68639 0.328216 -3.53312 
254 4.71823 2.67368 -29.4046 -3.6175 -2.95668 -2.01879 -0.26029 0.093666 0.924859 -3.5331 
255 0.789491 4.25342 -28.1224 -3.68174 -4.61317 -2.6267 -0.190221 -0.896048 0.349639 -3.53368 
256 0.738303 4.26308 -25.5582 -3.65387 -4.66525 -2.79187 -0.190731 -0.90073 0.309864 -3.53362 
257 1.14783 6.39423 -26.8335 -3.13073 -4.36778 -2.40773 -0.236252 -1.33126 0.462856 -3.53342 
258 2.92245 4.57103 -26.8405 -3.03364 -3.55104 -2.17206 -0.31477 -0.706741 0.28822 -3.53318 
259 1.07087 6.40876 -24.272 -3.0781 -4.37952 -2.53119 -0.230283 -1.33495 0.407957 -3.53347 
260 4.68724 2.73114 -26.8391 -3.62745 -2.94909 -2.1811 -0.29443 0.0563221 0.90098 -3.53316 
261 2.518 2.44506 -25.561 -3.56273 -3.49866 -2.49921 -0.323143 -0.209814 0.383866 -3.52962 
262 2.48901 2.47595 -22.9988 -3.5566 -3.50809 -2.63715 -0.345265 -0.229041 0.361864 -3.52967 
263 2.86826 4.60734 -24.2778 -3.00273 -3.55548 -2.30644 -0.333884 -0.725341 0.248652 -3.53323 
264 4.65548 2.78837 -24.2763 -3.61893 -2.93249 -2.31515 -0.327068 0.018492 0.877214 -3.53321 
265 0.686887 4.27226 -22.9967 -3.61621 -4.69679 -2.9247 -0.187174 -0.904632 0.270128 -3.5336 
266 0.635252 4.28083 -20.4373 -3.57653 -4.71529 -3.02895 -0.180172 -0.907906 0.232761 -3.5336 
267 0.993579 6.42239 -21.7127 -3.02531 -4.37976 -2.62598 -0.221024 -1.33749 0.355604 -3.53353 
268 2.81338 4.64295 -21.7174 -2.96573 -3.55431 -2.41524 -0.3492 -0.741258 0.212005 -3.53327 
269 0.915968 6.435 -19.1551 -2.9771 -4.3746 -2.69759 -0.209098 -1.33949 0.307507 -3.53359 
270 4.62284 2.84522 -21.7158 -3.59998 -2.91393 -2.42306 -0.356742 -0.0171075 0.855545 -3.53325 
271 2.4595 2.50648 -20.4388 -3.54099 -3.51163 -2.74771 -0.363929 -0.246354 0.341773 -3.52971 
272 2.42945 2.5366 -17.8807 -3.52098 -3.5132 -2.83449 -0.378965 -0.261457 0.324123 -3.52975 
273 2.75782 4.67776 -19.159 -2.92798 -3.55151 -2.50159 -0.360245 -0.754393 0.179223 -3.5333 
274 4.58925 2.90164 -19.1573 -3.57608 -2.89744 -2.50819 -0.382906 -0.0492337 0.836796 -3.53328 
275 0.583411 4.28874 -17.8797 -3.53932 -4.72604 -3.10927 -0.170456 -0.910818 0.198803 -3.5336 
276 0.531376 4.29595 -15.3234 -3.50675 -4.73247 -3.17018 -0.158734 -0.913674 0.168443 -3.53361 
277 0.838059 6.44652 -16.599 -2.93554 -4.36774 -2.75101 -0.195152 -1.34153 0.264128 -3.53365 
278 2.70159 4.71174 -16.602 -2.89246 -3.54926 -2.56894 -0.367181 -0.765115 0.150327 -3.53332 
279 0.759862 6.45694 -14.0439 -2.90095 -4.3612 -2.79038 -0.179813 -1.34402 0.225215 -3.53369 
280 4.5547 2.95758 -16.6003 -3.55063 -2.88494 -2.57419 -0.40558 -0.0776655 0.821071 -3.53331 
281 2.39887 2.56629 -15.324 -3.4997 -3.51493 -2.90139 -0.390618 -0.274526 0.308878 -3.52977 
282 2.36779 2.59554 -12.7685 -3.4789 -3.51779 -2.95208 -0.399345 -0.285953 0.295727 -3.52979 
283 2.64471 4.74489 -14.0462 -2.86053 -3.54853 -2.62061 -0.370516 -0.773972 0.124871 -3.53333 
284 4.51922 3.01305 -14.0446 -3.52558 -2.87703 -2.62456 -0.425086 -0.102757 0.808076 -3.53332 
285 0.479156 4.30245 -12.7682 -3.47945 -4.73664 -3.21562 -0.145629 -0.916739 0.141412 -3.53362 
286 0.426755 4.30823 -10.2137 -3.45707 -4.73968 -3.24885 -0.131669 -0.920151 0.117237 -3.53362 
287 0.681384 6.46626 -11.4896 -2.87251 -4.35591 -2.81895 -0.163633 -1.34713 0.190183 -3.53373 
288 2.58721 4.7772 -11.4914 -2.83243 -3.54956 -2.65956 -0.370898 -0.781491 0.102233 -3.53334 
289 0.602626 6.47449 -8.93595 -2.8488 -4.35212 -2.83918 -0.147037 -1.35076 0.158334 -3.53375 
290 4.48282 3.06802 -11.4897 -3.50185 -2.87351 -2.6623 -0.441887 -0.125101 0.797339 -3.53333 
291 2.33621 2.62436 -10.2138 -3.45936 -3.52199 -2.98972 -0.405687 -0.296155 0.284268 -3.5298 
292 2.30414 2.65276 -7.65973 -3.44118 -3.5274 -3.01688 -0.410182 -0.305461 0.2741 -3.52981 
293 2.52912 4.80871 -8.93719 -2.80773 -3.5522 -2.68829 -0.368977 -0.78805 0.0817858 -3.53334 
294 4.44553 3.12251 -8.93556 -3.47966 -2.87383 -2.68987 -0.456472 -0.145309 0.788331 -3.53334 
295 0.374171 4.31332 -7.65984 -3.43865 -4.74211 -3.27241 -0.117275 -0.923844 0.0953767 -3.53362 
296 0.321409 4.31773 -5.10638 -3.42304 -4.7441 -3.28818 -0.102759 -0.927508 0.0752737 -3.53363 
297 0.523595 6.48166 -6.38268 -2.82824 -4.34974 -2.85286 -0.130296 -1.35453 0.128958 -3.53377 
298 2.47044 4.83941 -6.38351 -2.78563 -3.55616 -2.70874 -0.365307 -0.793816 0.0629752 -3.53334 
299 0.444314 6.48779 -3.82971 -2.80954 -4.34849 -2.86116 -0.113497 -1.35782 0.101368 -3.53378 
300 4.40737 3.1765 -6.38189 -3.45885 -2.87728 -2.70916 -0.469271 -0.163891 0.780544 -3.53334 
301 2.27161 2.68075 -5.1061 -3.42412 -3.53372 -3.03554 -0.413297 -0.31405 0.264873 -3.52982 
302 2.23861 2.70831 -2.55276 -3.40782 -3.54072 -3.04703 -0.41535 -0.321951 0.2563 -3.52982 
303 2.41122 4.86933 -3.83018 -2.76534 -3.56117 -2.7223 -0.360256 -0.798751 0.0453511 -3.53334 
304 4.36838 3.23 -3.82856 -3.4391 -2.8833 -2.72153 -0.480577 -0.181211 0.773532 -3.53335 
305 0.268483 4.32147 -2.55319 -3.40924 -4.74564 -3.29737 -0.0882943 -0.93062 0.0563664 -3.53363 
306 0.364831 6.49289 -1.27693 -2.79218 -4.34815 -2.86474 -0.0965527 -1.35993 0.0749114 -3.5338 
307 2.35149 4.89846 -1.27706 -2.7463 -3.56713 -2.72979 -0.353944 -0.802681 0.0285571 -3.53335 
308 4.32859 3.28299 -1.27544 -3.42014 -2.89156 -2.72781 -0.490482 -0.1975 0.766927 -3.53335 
309 2.43639 7.09067 -0.000752481 -2.22122 -3.36373 -2.40276 -0.317762 -1.20945 -0.18856 -3.53289 
310 0.434645 8.66783 -0.000956973 -2.25232 -4.02068 -2.49708 -0.100182 -1.74685 0.0828084 -3.53355 