ITEM: TIMESTEP
1061
ITEM: NUMBER OF ATOMS
37664
ITEM: BOX BOUNDS ff ff ff
-100 100
-100 100
-156.15 156.15
ITEM: ATOMS id x y z v_peratom_sxx v_peratom_syy v_peratom_szz v_peratom_sxy v_peratom_sxz v_peratom_syz c_atomPE 
1 -0.00365851 -0.00218844 0.00105429 -5.17911 -5.17181 -9.53869 0.000246126 -0.0114283 -0.0278127 -3.51528 
2 -0.00396281 -0.00207814 2.5543 -5.17839 -5.17102 -9.53772 -0.000167765 -0.0136217 -0.0266255 -3.51527 
3 -0.00429459 -0.00191309 5.10762 -5.17319 -5.16611 -9.52703 -0.000830036 -0.0139624 -0.0253556 -3.51532 
4 -0.00464005 -0.00169772 7.66113 -5.16268 -5.15648 -9.50513 -0.00173047 -0.0119191 -0.0241523 -3.51541 
5 -0.00497447 -0.0014463 10.215 -5.1459 -5.14126 -9.46989 -0.00278058 -0.00736078 -0.0230242 -3.51557 
6 -0.00526541 -0.00117893 12.7694 -5.12176 -5.11931 -9.41868 -0.00382969 -0.000643988 -0.0218326 -3.5158 
7 -0.00547883 -0.0009159 15.3246 -5.08893 -5.08905 -9.3483 -0.00471236 0.00745571 -0.0203661 -3.51612 
8 -0.00558616 -0.000672846 17.8809 -5.04557 -5.04832 -9.25488 -0.00530077 0.0159417 -0.0184513 -3.51655 
9 -0.00556987 -0.000458434 20.4386 -4.98899 -4.9941 -9.13372 -0.00553657 0.0238327 -0.0160371 -3.5171 
10 -0.00542606 -0.000274835 22.998 -4.9153 -4.92225 -8.97937 -0.00543506 0.0303525 -0.0132255 -3.5178 
11 -0.00516376 -0.000120048 25.5597 -4.81924 -4.8274 -8.78619 -0.00506852 0.0350355 -0.0102503 -3.51866 
12 -0.00480176 9.17088e-06 28.124 -4.69444 -4.70314 -8.55005 -0.00453902 0.0377453 -0.00741838 -3.51969 
13 -0.00436399 0.000114981 30.6914 -4.53491 -4.54361 -8.2714 -0.00394986 0.0386311 -0.0050308 -3.52089 
14 -0.00387462 0.000197514 33.262 -4.33892 -4.34721 -7.95897 -0.00338286 0.0380452 -0.00330196 -3.5222 
15 -0.0033538 0.000255303 35.8358 -4.1142 -4.12182 -7.63028 -0.00288667 0.0364488 -0.00230908 -3.52347 
16 -0.00281523 0.000286189 38.4125 -3.87674 -3.88356 -7.3037 -0.0024768 0.034313 -0.00199847 -3.52458 
17 -0.0022651 0.000287677 40.9917 -3.63811 -3.64409 -6.9857 -0.0021419 0.0320476 -0.00224577 -3.52548 
18 -0.00169958 0.000256801 43.5731 -3.39928 -3.4044 -6.66351 -0.00184789 0.0300433 -0.00290934 -3.5262 
19 -0.00110082 0.000189747 46.1569 -3.13505 -3.13918 -6.30038 -0.00152531 0.0286757 -0.00383763 -3.52695 
20 -0.000439553 7.85808e-05 48.7435 -2.75183 -2.75404 -5.86097 -0.000847137 0.0277673 -0.00497887 -3.52782 
21 5.95933e-07 -4.11185e-08 51.3317 -1.92307 -1.92291 -4.91975 7.90658e-05 -0.00140242 0.000245674 -3.53203 
22 4.01304e-07 -1.42881e-06 53.9138 -0.851908 -0.851917 -8.91777 8.49093e-07 -2.89621e-05 -7.13714e-05 -3.48169 
23 8.71386e-07 -1.98378e-06 56.3885 1.68559 1.6856 1.87688 -1.57293e-05 2.42263e-05 -2.47113e-07 -2.55581 
24 -1.23087e-07 -1.12453e-06 -53.8876 -2.60695 -2.60697 -6.5496 -1.85252e-05 1.0566e-05 -3.25602e-05 -3.40183 
25 1.02659e-07 -1.55837e-06 -51.3239 -2.07913 -2.07931 -5.57936 -0.000269012 0.000665475 0.00144136 -3.52873 
26 -0.000169592 -0.00041038 -48.7462 -2.69428 -2.69167 -6.14729 0.00353933 -0.0107597 -0.0256303 -3.5264 
27 -0.00039476 -0.000988555 -46.1646 -3.0214 -3.01675 -6.34728 0.00626295 -0.00893997 -0.023983 -3.52678 
28 -0.000559479 -0.00142962 -43.5822 -3.30305 -3.29659 -6.60768 0.00687515 -0.00561276 -0.0227761 -3.52635 
29 -0.000666693 -0.00176708 -41.0007 -3.55874 -3.55027 -6.89615 0.00679783 -0.00194894 -0.0219791 -3.52575 
30 -0.000735841 -0.00201978 -38.4209 -3.80933 -3.79883 -7.20511 0.00625094 0.00174115 -0.0214274 -3.52491 
31 -0.000788971 -0.00219915 -35.8434 -4.05604 -4.04376 -7.53049 0.00534877 0.00513285 -0.0210339 -3.52384 
32 -0.000848627 -0.00231512 -33.2686 -4.28944 -4.27584 -7.86112 0.0042232 0.00787307 -0.0208162 -3.52261 
33 -0.000934827 -0.00237896 -30.6968 -4.49642 -4.48215 -8.17934 0.00304089 0.0096867 -0.020847 -3.52132 
34 -0.00106128 -0.00240336 -28.1283 -4.66844 -4.65418 -8.46801 0.0019727 0.0104759 -0.0211961 -3.5201 
35 -0.00123271 -0.00240089 -25.5629 -4.80451 -4.79087 -8.71654 0.00114761 0.0103545 -0.0218824 -3.51901 
36 -0.00144444 -0.00238249 -23.0002 -4.90869 -4.89611 -8.92198 0.000620081 0.00959 -0.0228564 -3.5181 
37 -0.00168468 -0.00235671 -20.4399 -4.98687 -4.97557 -9.08673 0.000366485 0.00847636 -0.0240226 -3.51736 
38 -0.0019385 -0.00233003 -17.8814 -5.04487 -5.03484 -9.21586 0.000309885 0.00720287 -0.0252734 -3.51677 
39 -0.00219241 -0.00230743 -15.3245 -5.08759 -5.07869 -9.31519 0.000358399 0.00578034 -0.0265091 -3.51632 
40 -0.00243791 -0.00229234 -12.7687 -5.11885 -5.11085 -9.39023 0.00043807 0.0040595 -0.0276321 -3.51597 
41 -0.00267317 -0.00228552 -10.2138 -5.14153 -5.13415 -9.4458 0.000506598 0.0018316 -0.0285299 -3.51572 
42 -0.00290283 -0.00228323 -7.65952 -5.15773 -5.15068 -9.48584 0.000545724 -0.00103329 -0.0290739 -3.51553 
43 -0.00313623 -0.00227613 -5.10573 -5.16888 -5.16191 -9.51342 0.000540619 -0.00446454 -0.0291499 -3.5154 
44 -0.00338475 -0.00224994 -2.55225 -5.1759 -5.1688 -9.53066 0.000459532 -0.00812606 -0.0287094 -3.51532 
45 0.0924546 2.15788 1.27692 -4.05622 -5.14039 -3.83752 -0.0511459 -0.452144 0.00367944 -3.52907 
46 0.0657782 2.15902 3.83011 -4.05014 -5.13953 -3.8317 -0.0397541 -0.452365 -0.00545828 -3.52908 
47 0.0390996 2.15987 6.38343 -4.04478 -5.13634 -3.81755 -0.0283361 -0.450995 -0.0150092 -3.5291 
48 0.0124704 2.16042 8.93703 -4.04089 -5.1306 -3.79383 -0.0166698 -0.448085 -0.0252332 -3.52913 
49 -0.0140548 2.16063 11.4911 -4.03947 -5.12192 -3.75887 -0.0045933 -0.444019 -0.0363189 -3.52917 
50 -0.0404267 2.1605 14.0458 -4.04144 -5.10958 -3.71062 0.00787564 -0.439391 -0.0484514 -3.52922 
51 -0.0666099 2.16001 16.6015 -4.04728 -5.09236 -3.64644 0.0204815 -0.43482 -0.0618817 -3.52928 
52 -0.0925863 2.15915 19.1584 -4.05668 -5.06833 -3.56301 0.0327446 -0.430791 -0.0769436 -3.52935 
53 -0.118356 2.15793 21.7168 -4.06815 -5.03457 -3.45624 0.0440208 -0.427579 -0.0939773 -3.52943 
54 -0.143933 2.15636 24.2772 -4.0785 -4.98683 -3.32152 0.0535836 -0.425232 -0.113115 -3.52953 
55 -0.169343 2.15449 26.8399 -4.08192 -4.91914 -3.15448 0.0607338 -0.423607 -0.133876 -3.52967 
56 -0.194616 2.15238 29.4055 -4.06895 -4.82376 -2.95263 0.0649756 -0.422414 -0.154605 -3.52986 
57 -0.219773 2.15011 31.9742 -4.0263 -4.69258 -2.71808 0.0663015 -0.421256 -0.172164 -3.53012 
58 -0.24482 2.1478 34.5463 -3.9401 -4.52118 -2.45981 0.0655049 -0.419636 -0.183057 -3.53047 
59 -0.269733 2.14548 37.1216 -3.80478 -4.31498 -2.19205 0.0641398 -0.416971 -0.187 -3.53087 
60 -0.294472 2.14307 39.6996 -3.62863 -4.08863 -1.92628 0.0637718 -0.412792 -0.189032 -3.53128 
61 -0.319013 2.1405 42.2798 -3.42357 -3.85289 -1.6628 0.0651154 -0.407192 -0.195247 -3.53164 
62 -0.343391 2.13767 44.8621 -3.19606 -3.6046 -1.39026 0.0674154 -0.400738 -0.212216 -3.53193 
63 -0.367766 2.13483 47.4464 -2.91617 -3.29364 -1.10606 0.067339 -0.395858 -0.231652 -3.53223 
64 -0.392512 2.13371 50.032 -2.43439 -2.80056 -0.49518 0.0605369 -0.414718 -0.201058 -3.53323 
65 -0.418483 2.1304 52.6263 -1.76577 -2.00552 -0.561408 0.0455062 -0.308931 -0.729999 -3.52457 
66 -0.44812 2.14653 55.1778 6.97659 7.73843 2.4309 0.0330159 -0.597322 1.77022 -3.02528 
67 0.649859 2.05055 -55.162 1.38944 0.842387 -0.678367 -0.188253 -0.0991978 1.20761 -3.26036 
68 0.633027 2.08274 -52.6122 -1.11196 -2.21867 -0.457719 -0.374491 -0.489286 -0.161475 -3.53566 
69 0.607028 2.08678 -50.0319 -2.00261 -2.55474 -0.871274 -0.170275 -0.429436 0.0815396 -3.53399 
70 0.58133 2.08836 -47.4532 -2.63761 -3.0711 -1.20628 -0.127097 -0.403127 0.155562 -3.5329 
71 0.556534 2.09194 -44.8711 -3.05893 -3.44039 -1.36632 -0.106836 -0.397505 0.198991 -3.53225 
72 0.531924 2.09627 -42.2892 -3.35784 -3.7259 -1.59529 -0.0983542 -0.401258 0.210569 -3.53183 
73 0.507204 2.10081 -39.7085 -3.60151 -3.98188 -1.84598 -0.0972134 -0.406643 0.216491 -3.53141 
74 0.482279 2.10544 -37.1298 -3.80378 -4.21992 -2.10967 -0.101658 -0.411588 0.219982 -3.53098 
75 0.457146 2.11016 -34.5537 -3.96151 -4.43495 -2.37921 -0.11004 -0.415718 0.218708 -3.53055 
76 0.431836 2.11495 -31.9806 -4.0704 -4.61715 -2.64252 -0.120032 -0.419342 0.20996 -3.53018 
77 0.406376 2.11978 -29.4108 -4.13379 -4.76131 -2.88589 -0.129101 -0.422752 0.193731 -3.52988 
78 0.380781 2.12454 -26.8442 -4.16207 -4.86955 -3.09928 -0.135392 -0.425984 0.172603 -3.52965 
79 0.355056 2.12913 -24.2805 -4.16716 -4.94823 -3.27842 -0.138092 -0.428948 0.14964 -3.52948 
80 0.329209 2.13347 -21.7193 -4.15897 -5.00455 -3.42388 -0.137208 -0.431576 0.127098 -3.52936 
81 0.303251 2.13752 -19.1602 -4.1445 -5.04476 -3.53903 -0.133197 -0.433887 0.106225 -3.52927 
82 0.277195 2.14124 -16.6027 -4.12818 -5.07364 -3.62832 -0.12666 -0.435992 0.0875079 -3.52921 
83 0.251051 2.14463 -14.0466 -4.11256 -5.09462 -3.69628 -0.118189 -0.438063 0.0709801 -3.52916 
84 0.224826 2.14766 -11.4914 -4.09883 -5.11002 -3.74703 -0.108303 -0.440281 0.0564606 -3.52912 
85 0.19852 2.15035 -8.937 -4.08732 -5.12139 -3.78399 -0.0974489 -0.44276 0.0436875 -3.5291 
86 0.172129 2.15271 -6.3831 -4.0778 -5.12969 -3.80991 -0.0860155 -0.445474 0.0323693 -3.52908 
87 0.14565 2.15474 -3.82957 -4.06978 -5.13548 -3.82677 -0.0743368 -0.448218 0.0221824 -3.52907 
88 0.119088 2.15646 -1.27627 -4.06273 -5.13902 -3.83581 -0.0626683 -0.450606 0.0127562 -3.52906 
89 0.215422 4.32456 -0.000168998 -3.39663 -4.7467 -3.30057 -0.0738796 -0.932422 0.0380415 -3.53364 
90 0.28523 6.49698 1.27574 -2.77675 -4.34869 -2.86385 -0.0791885 -1.36023 0.0489476 -3.53381 
91 2.20518 2.73546 0.000427168 -3.39186 -3.54842 -3.05213 -0.416447 -0.329044 0.248124 -3.52983 
92 2.17136 2.76217 2.55357 -3.37645 -3.55695 -3.05091 -0.416376 -0.335319 0.240219 -3.52983 
93 2.29131 4.92679 1.27597 -2.72851 -3.57423 -2.73152 -0.346188 -0.805331 0.0123068 -3.53335 
94 4.28803 3.33543 1.27761 -3.40192 -2.90207 -2.7284 -0.498827 -0.212871 0.760438 -3.53335 
95 0.162295 4.327 2.5528 -3.38585 -4.74725 -3.29787 -0.0593199 -0.932724 0.0199102 -3.53365 
96 0.109165 4.32879 5.10583 -3.3776 -4.74741 -3.2889 -0.0444033 -0.931209 0.00144516 -3.53366 
97 0.205615 6.50005 3.82843 -2.76468 -4.35017 -2.8584 -0.0612731 -1.3589 0.0229695 -3.53382 
98 2.23075 4.95429 3.82901 -2.71272 -3.58261 -2.72736 -0.336723 -0.806841 -0.00370376 -3.53335 
99 0.126092 6.5021 6.38125 -2.75786 -4.3529 -2.84809 -0.042625 -1.35616 -0.00359052 -3.53383 
100 4.24675 3.3873 3.83069 -3.38485 -2.91495 -2.72318 -0.505289 -0.227557 0.753894 -3.53336 
101 2.13718 2.78843 5.10681 -3.36174 -3.56663 -3.04302 -0.414798 -0.340724 0.232384 -3.52983 
102 2.10268 2.8142 7.66027 -3.3484 -3.57781 -3.02761 -0.411201 -0.345393 0.224439 -3.52983 
103 2.16989 4.98095 6.38221 -2.69994 -3.59263 -2.71677 -0.325137 -0.807304 -0.0198183 -3.53336 
104 4.2048 3.43856 6.38393 -3.36944 -2.93057 -2.71172 -0.50941 -0.241762 0.747107 -3.53336 
105 0.0561156 4.32993 7.65907 -3.37343 -4.74734 -3.27298 -0.0288779 -0.92812 -0.0177566 -3.53368 
106 0.00322728 4.33038 10.2127 -3.37508 -4.74716 -3.24916 -0.0126287 -0.924055 -0.0380759 -3.53369 
107 0.0467654 6.50311 8.93432 -2.75833 -4.35724 -2.83245 -0.0232689 -1.35276 -0.0312691 -3.53383 
108 2.1088 5.00672 8.93569 -2.6916 -3.60445 -2.69893 -0.311107 -0.807182 -0.0364948 -3.53336 
109 -0.0322845 6.50305 11.4878 -2.76768 -4.36345 -2.81073 -0.00342449 -1.34955 -0.0606533 -3.53382 
110 4.16224 3.48917 8.93747 -3.35657 -2.94926 -2.69318 -0.510704 -0.255864 0.739897 -3.53336 
111 2.06793 2.83945 10.2141 -3.33734 -3.59065 -3.00338 -0.405079 -0.349674 0.216143 -3.52983 
112 2.03297 2.86416 12.7685 -3.32955 -3.60501 -2.96866 -0.396056 -0.35412 0.207144 -3.52982 
113 2.04754 5.03158 11.4896 -2.68914 -3.61806 -2.67271 -0.294478 -0.807158 -0.0543401 -3.53336 
114 4.11909 3.53909 11.4914 -3.34713 -2.97122 -2.66635 -0.508747 -0.270414 0.732 -3.53336 
115 -0.0494353 4.33012 12.7668 -3.38406 -4.74676 -3.21616 0.00423939 -0.919757 -0.0599343 -3.5337 
116 -0.10183 4.32915 15.3217 -3.4013 -4.74568 -3.1722 0.0213981 -0.915885 -0.0838432 -3.53371 
117 -0.11101 6.50189 14.0419 -2.78682 -4.37156 -2.78181 0.0165371 -1.34725 -0.0924195 -3.5338 
118 1.98616 5.05549 14.0442 -2.69362 -3.63316 -2.63666 -0.275264 -0.808018 -0.0741106 -3.53336 
119 -0.189394 6.49964 16.5968 -2.81597 -4.38125 -2.74393 0.0361686 -1.34626 -0.127337 -3.53376 
120 4.07541 3.5883 14.0461 -3.34189 -2.99648 -2.62965 -0.503212 -0.286125 0.723019 -3.53336 
121 1.99783 2.88831 15.3237 -3.32572 -3.6204 -2.92134 -0.38393 -0.359422 0.196961 -3.52981 
122 1.96252 2.91186 17.8799 -3.32608 -3.63586 -2.85885 -0.368648 -0.36632 0.184993 -3.52979 
123 1.92468 5.07843 16.5996 -2.70567 -3.64914 -2.58889 -0.253594 -0.810525 -0.0966725 -3.53335 
124 4.03118 3.63677 16.6015 -3.34131 -3.02482 -2.58108 -0.493855 -0.303821 0.712386 -3.53336 
125 -0.153939 4.32745 17.8776 -3.427 -4.74296 -3.11483 0.0383508 -0.912855 -0.110402 -3.53371 
126 -0.205765 4.32501 20.4348 -3.46052 -4.73687 -3.04075 0.0545042 -0.910782 -0.140217 -3.5337 
127 -0.267437 6.49626 19.1527 -2.85479 -4.39169 -2.69454 0.0550199 -1.34664 -0.166216 -3.53371 
128 1.8631 5.10036 19.1561 -2.7253 -3.66499 -2.52696 -0.229644 -0.815335 -0.122922 -3.53334 
129 -0.345155 6.49178 21.7099 -2.90231 -4.40121 -2.63008 0.0726895 -1.34806 -0.209762 -3.53364 
130 3.98642 3.68445 19.158 -3.34534 -3.05564 -2.5182 -0.480485 -0.324367 0.699378 -3.53334 
131 1.92706 2.93481 20.4374 -3.3301 -3.64986 -2.77808 -0.350256 -0.375486 0.170586 -3.52976 
132 1.89142 2.95715 22.9967 -3.33613 -3.65995 -2.67542 -0.328906 -0.38741 0.153167 -3.52973 
133 1.8014 5.12127 21.7141 -2.75182 -3.6791 -2.44783 -0.203614 -0.822952 -0.153639 -3.53331 
134 3.94113 3.73132 21.716 -3.35327 -3.08782 -2.43812 -0.462986 -0.348556 0.683183 -3.53332 
135 -0.257323 4.32187 22.9936 -3.50011 -4.72456 -2.94576 0.0692218 -0.909516 -0.173694 -3.5337 
136 -0.30864 4.31806 25.5544 -3.5423 -4.70149 -2.82495 0.0818458 -0.908726 -0.21065 -3.5337 
137 -0.422563 6.48623 24.2687 -2.95665 -4.40682 -2.54584 0.0888362 -1.34993 -0.25826 -3.53357 
138 1.73958 5.14117 24.2738 -2.78352 -3.68891 -2.34798 -0.175798 -0.833667 -0.189214 -3.53328 
139 -0.499676 6.47969 26.8296 -3.0143 -4.40353 -2.43603 0.103133 -1.35151 -0.311036 -3.53351 
140 3.89529 3.77736 24.2756 -3.36334 -3.11927 -2.3376 -0.441414 -0.376912 0.663065 -3.53329 
141 1.85561 2.97889 25.558 -3.34081 -3.66228 -2.54704 -0.304934 -0.402174 0.132527 -3.52968 
142 1.81964 3.00008 28.1218 -3.33814 -3.65084 -2.38962 -0.279089 -0.419069 0.109325 -3.52962 
143 1.67763 5.16008 26.8357 -2.817 -3.69043 -2.22372 -0.146764 -0.847411 -0.229164 -3.53323 
144 3.84894 3.82258 26.8375 -3.37214 -3.14631 -2.21323 -0.416235 -0.409302 0.638721 -3.53324 
145 -0.359744 4.31368 28.1177 -3.5807 -4.66085 -2.67336 0.0917106 -0.908027 -0.24968 -3.53373 
146 -0.410664 4.30887 30.684 -3.60443 -4.59308 -2.48766 0.0982282 -0.907025 -0.287467 -3.53381 
147 -0.576507 6.47232 29.393 -3.06872 -4.38335 -2.29446 0.11515 -1.3521 -0.365644 -3.53348 
148 1.61557 5.17813 29.4002 -2.84598 -3.67748 -2.07188 -0.117688 -0.863378 -0.271365 -3.53318 
149 -0.653069 6.4644 31.9595 -3.10841 -4.3344 -2.11635 0.124225 -1.35121 -0.417125 -3.5335 
150 3.80214 3.86703 29.4019 -3.37357 -3.16265 -2.06193 -0.38868 -0.444246 0.610912 -3.53318 
151 1.78358 3.02083 30.6886 -3.31838 -3.61683 -2.20166 -0.252851 -0.43604 0.0858212 -3.52957 
152 1.74754 3.0413 33.2586 -3.26786 -3.54908 -1.9853 -0.228598 -0.449425 0.0662649 -3.52956 
153 1.55348 5.19554 31.9678 -2.85962 -3.64107 -1.89097 -0.0906705 -0.879334 -0.311182 -3.53312 
154 3.75509 3.91086 31.9693 -3.3574 -3.15825 -1.88186 -0.361048 -0.478083 0.582321 -3.53311 
155 -0.461411 4.30387 33.2536 -3.59732 -4.4868 -2.269 0.101166 -0.905187 -0.318816 -3.53397 
156 -0.511959 4.29887 35.8266 -3.54129 -4.33307 -2.0261 0.101111 -0.901542 -0.339146 -3.53423 
157 -0.729356 6.45633 34.5294 -3.11546 -4.24114 -1.90199 0.129552 -1.34827 -0.458377 -3.53363 
158 1.49151 5.21265 34.5386 -2.84149 -3.5691 -1.68272 -0.0686458 -0.890958 -0.341549 -3.53309 
159 -0.805308 6.44846 37.103 -3.06834 -4.08888 -1.66156 0.130845 -1.34193 -0.483671 -3.53389 
160 3.70806 3.95431 34.54 -3.30824 -3.11911 -1.6742 -0.336526 -0.504886 0.557955 -3.53308 
161 1.7117 3.06171 35.832 -3.17233 -3.43755 -1.7478 -0.208991 -0.455247 0.0552375 -3.52962 
162 1.6762 3.08217 38.4085 -3.02603 -3.28042 -1.49997 -0.195136 -0.453013 0.0524255 -3.52978 
163 1.42989 5.22988 37.1129 -2.77239 -3.44881 -1.45406 -0.054273 -0.892885 -0.356448 -3.53314 
164 3.66142 3.99766 37.1141 -3.20774 -3.03089 -1.44562 -0.31791 -0.519151 0.543019 -3.53313 
165 -0.562232 4.29395 38.4028 -3.42723 -4.13423 -1.77416 0.0997541 -0.894835 -0.34993 -3.53458 
166 -0.612141 4.28895 40.9816 -3.26255 -3.90635 -1.52566 0.0993395 -0.88446 -0.360112 -3.53492 
167 -0.8808 6.44091 39.6798 -2.95523 -3.87722 -1.41505 0.129376 -1.33036 -0.496043 -3.53425 
168 1.36886 5.2474 39.6902 -2.64161 -3.27552 -1.21686 -0.047915 -0.883751 -0.359063 -3.53331 
169 -0.955727 6.43339 42.259 -2.78446 -3.62631 -1.1803 0.127881 -1.31346 -0.50821 -3.53461 
170 3.61542 4.04107 39.6913 -3.04553 -2.88855 -1.20853 -0.305593 -0.522004 0.53617 -3.5333 
171 1.64104 3.1026 40.9876 -2.83724 -3.08662 -1.24956 -0.185339 -0.44789 0.0498891 -3.53 
172 1.60614 3.12286 43.5687 -2.61589 -2.86429 -0.994298 -0.177068 -0.446355 0.0393924 -3.53027 
173 1.30846 5.26508 42.2698 -2.45554 -3.05843 -0.981278 -0.0467343 -0.869976 -0.363742 -3.53355 
174 3.57001 4.08445 42.2709 -2.82895 -2.70056 -0.974724 -0.297383 -0.523186 0.526587 -3.53354 
175 -0.66167 4.28367 43.5624 -3.05843 -3.65995 -1.28018 0.10105 -0.871214 -0.378027 -3.53523 
176 -0.710989 4.2781 46.1447 -2.82683 -3.39336 -1.018 0.104121 -0.85728 -0.408945 -3.53549 
177 -1.03015 6.42569 44.8395 -2.56313 -3.34338 -0.96425 0.127786 -1.29351 -0.525344 -3.53495 
178 1.24856 5.28276 44.851 -2.22144 -2.80253 -0.748889 -0.0489634 -0.859985 -0.381919 -3.53386 
179 -1.10443 6.41816 47.4204 -2.29849 -3.01768 -0.779327 0.130002 -1.27514 -0.53746 -3.53528 
180 3.52498 4.12774 44.852 -2.56335 -2.47449 -0.749966 -0.290624 -0.53156 0.50576 -3.53383 
181 1.57129 3.14294 46.1516 -2.36657 -2.61629 -0.716694 -0.169938 -0.455903 0.0127601 -3.53054 
182 1.53636 3.16327 48.7364 -2.09019 -2.36099 -0.345972 -0.182724 -0.478772 -0.0257147 -3.53015 
183 1.1887 5.30045 47.4331 -1.94588 -2.50561 -0.518003 -0.0628576 -0.866558 -0.42643 -3.53411 
184 3.48005 4.171 47.4338 -2.24255 -2.22062 -0.54188 -0.285309 -0.557905 0.462424 -3.53403 
185 -0.760608 4.27328 48.7285 -2.6041 -3.07517 -0.672106 0.0974614 -0.849716 -0.413025 -3.53515 
186 -0.811621 4.26877 51.3169 -1.98848 -2.35116 0.310473 0.0838828 -0.841704 -0.653448 -3.53805 
187 -1.17889 6.41384 50.0002 -2.05973 -2.54266 -0.336631 0.0873662 -1.28006 -0.616628 -3.53572 
188 1.12775 5.31799 50.0156 -1.56907 -2.0788 -0.0206192 -0.110967 -0.945824 -0.595043 -3.53485 
189 -1.25707 6.40546 52.5877 -1.61235 -2.48689 0.643297 0.175758 -1.31617 -0.613147 -3.53282 
190 3.43505 4.21346 50.0156 -1.75823 -1.85271 -0.0377408 -0.309215 -0.668225 0.314394 -3.53491 
191 1.50027 3.18358 51.3264 -1.43157 -1.70132 0.658638 -0.172625 -0.54836 -0.133368 -3.53273 
192 1.46587 3.20964 53.9052 0.0267033 0.953994 -0.795864 0.566308 -0.560982 0.138973 -3.37565 
193 1.06597 5.33731 52.6041 -1.24921 -1.89855 0.441472 -0.23697 -0.801327 -0.410827 -3.52779 
194 3.38747 4.26008 52.6041 -1.41016 -1.71356 0.389822 -0.390657 -0.639446 0.587319 -3.52746 
195 -0.866323 4.2769 53.8949 -0.0508703 -0.206137 -1.18049 0.0793777 -1.26166 1.02744 -3.38132 
196 1.3298 4.1174 -56.3442 5.06942 2.90559 1.60242 -1.25473 -0.273892 0.110264 -2.79034 
197 -1.33605 6.40133 55.1665 4.18005 2.79745 1.28995 0.319922 -1.5232 0.197881 -3.26107 
198 1.00488 5.36129 55.1754 5.64209 6.63186 2.70774 0.369864 -0.636458 -0.0326152 -3.15047 
199 1.98371 6.26223 -55.1334 6.93989 9.11553 2.92917 0.134187 -0.847907 -0.525657 -3.02309 
200 3.34328 4.30996 55.1754 5.53065 7.35768 2.86911 0.118703 -0.278624 0.562637 -3.15115 
201 2.87095 2.09325 -56.362 4.04253 6.0065 1.88101 -3.16453 0.252645 0.341791 -2.79939 
202 2.84551 2.1252 -53.8874 0.165018 0.763302 -3.02646 -0.982109 -0.732816 -0.162365 -3.51266 
203 3.53831 4.21674 -55.1525 6.03166 6.27392 1.75936 0.302437 -1.21951 -0.0444715 -3.1433 
204 5.07312 2.13635 -55.1525 6.04997 7.03887 2.00315 0.446065 -0.528119 0.0805373 -3.14511 
205 1.29262 4.16451 -53.8815 0.86127 -0.348234 -3.67504 -0.408877 -0.573881 0.839002 -3.51412 
206 1.24176 4.17585 -51.3147 -1.28678 -1.91097 -0.373628 -0.214932 -0.880575 0.22013 -3.53903 
207 1.90264 6.26187 -52.5941 -0.917832 -1.4568 -0.573019 -0.18418 -1.16804 0.819996 -3.52792 
208 3.4607 4.22944 -52.6036 -0.748875 -0.925831 0.0954475 -0.677537 -0.496072 0.191364 -3.53019 
209 1.82403 6.27282 -50.0101 -1.64248 -2.32528 -0.262083 -0.200431 -1.28158 0.433103 -3.53673 
210 5.01221 2.17771 -52.6036 -1.34184 -0.348565 0.0546232 -0.502577 0.0191959 0.991503 -3.52952 
211 2.80522 2.14769 -51.32 -1.10367 -0.946849 -0.112625 -0.278077 -0.333013 0.261771 -3.53414 
212 2.77226 2.17461 -48.7405 -1.9684 -1.83653 -0.545343 -0.291617 -0.223478 0.338149 -3.53087 
213 3.40036 4.25787 -50.02 -1.43128 -1.65377 -0.138799 -0.408362 -0.708732 0.286414 -3.53497 
214 4.971 2.23184 -50.02 -1.84405 -1.27389 -0.113579 -0.296355 0.0209752 0.836025 -3.535 
215 1.18965 4.18043 -48.7355 -2.17781 -2.75542 -0.785484 -0.180395 -0.850043 0.284299 -3.5364 
216 1.13972 4.18651 -46.154 -2.63688 -3.19112 -0.97364 -0.165231 -0.833614 0.40223 -3.53604 
217 1.74858 6.27865 -47.4305 -2.1002 -2.83273 -0.673051 -0.213716 -1.24113 0.546475 -3.53588 
218 3.345 4.2875 -47.4411 -1.89788 -2.20777 -0.561265 -0.301223 -0.639211 0.336052 -3.53414 
219 1.67464 6.29044 -44.8494 -2.46956 -3.19092 -0.861593 -0.201083 -1.24469 0.604735 -3.53533 
220 4.9348 2.28446 -47.4403 -2.32158 -1.78816 -0.540574 -0.212377 0.105923 0.865042 -3.53419 
221 2.74198 2.20191 -46.1593 -2.36426 -2.26778 -0.738586 -0.232038 -0.16133 0.392751 -3.53074 
222 2.7136 2.23054 -43.5775 -2.67655 -2.59066 -0.950096 -0.216235 -0.149949 0.412868 -3.53037 
223 3.29148 4.31968 -44.8604 -2.23367 -2.573 -0.716589 -0.260896 -0.625173 0.371322 -3.53392 
224 4.90189 2.33752 -44.8595 -2.65678 -2.14334 -0.721853 -0.178375 0.143351 0.89621 -3.53392 
225 1.09055 4.19505 -43.572 -2.97545 -3.51144 -1.20168 -0.153052 -0.841512 0.427419 -3.53553 
226 1.04129 4.20428 -40.9908 -3.23507 -3.78669 -1.44297 -0.151111 -0.854519 0.433745 -3.53509 
227 1.60091 6.30392 -42.2683 -2.75177 -3.49741 -1.08881 -0.200722 -1.26243 0.620107 -3.53483 
228 3.23889 4.35333 -42.2794 -2.50706 -2.86953 -0.916664 -0.244094 -0.627537 0.388825 -3.5336 
229 1.52671 6.31809 -39.6884 -2.96234 -3.76466 -1.33276 -0.207842 -1.28149 0.62353 -3.53438 
230 4.87051 2.39145 -42.2785 -2.94003 -2.42579 -0.927586 -0.167861 0.154997 0.92113 -3.5336 
231 2.68576 2.2599 -40.9963 -2.93246 -2.85209 -1.18054 -0.213815 -0.147973 0.4266 -3.53006 
232 2.65801 2.28984 -38.4167 -3.14594 -3.06702 -1.42302 -0.218851 -0.147174 0.43791 -3.52981 
233 3.18653 4.38801 -39.6994 -2.72427 -3.1096 -1.14066 -0.238869 -0.632436 0.399057 -3.53333 
234 4.83971 2.44634 -39.6985 -3.17685 -2.64378 -1.15151 -0.168642 0.159711 0.942608 -3.53333 
235 0.991641 4.21378 -38.4113 -3.43444 -4.03116 -1.69417 -0.156384 -0.866828 0.434633 -3.53468 
236 0.941567 4.22348 -35.8343 -3.57531 -4.24161 -1.95001 -0.166017 -0.876681 0.429118 -3.53431 
237 1.45188 6.33274 -37.1107 -3.10445 -3.9883 -1.58507 -0.218717 -1.29724 0.618247 -3.53398 
238 3.13415 4.42364 -37.1215 -2.8857 -3.29328 -1.37479 -0.242381 -0.638745 0.401148 -3.53314 
239 1.37649 6.34791 -34.5362 -3.17911 -4.1573 -1.8321 -0.229099 -1.30926 0.599269 -3.53367 
240 4.8092 2.5022 -37.1205 -3.36432 -2.80025 -1.38432 -0.178992 0.159362 0.956313 -3.53314 
241 2.63026 2.32033 -35.8394 -3.31599 -3.23588 -1.66977 -0.23078 -0.148987 0.443567 -3.52963 
242 2.60249 2.3513 -33.2649 -3.4381 -3.35659 -1.91043 -0.249388 -0.156775 0.439716 -3.52955 
243 3.08168 4.46009 -34.5463 -2.98925 -3.41932 -1.60541 -0.253952 -0.649757 0.389859 -3.53306 
244 4.77891 2.5589 -34.5453 -3.4972 -2.89727 -1.614 -0.19905 0.148975 0.957225 -3.53306 
245 0.891135 4.2334 -33.2603 -3.65717 -4.40913 -2.19908 -0.176647 -0.884349 0.413112 -3.53401 
246 0.840421 4.24345 -30.6897 -3.68757 -4.53098 -2.42781 -0.185276 -0.890689 0.385546 -3.5338 
247 1.30064 6.36345 -31.9652 -3.19641 -4.26971 -2.0576 -0.235946 -1.31862 0.56425 -3.53349 
248 3.02901 4.49707 -31.9745 -3.03975 -3.49497 -1.81984 -0.271897 -0.666465 0.364023 -3.53307 
249 1.22441 6.37902 -29.3977 -3.17429 -4.33525 -2.25055 -0.238235 -1.32596 0.51673 -3.53342 
250 4.74868 2.61617 -31.9733 -3.57798 -2.94429 -1.8283 -0.22726 0.126119 0.945239 -3.53306 
251 2.57461 2.38255 -30.6937 -3.51373 -3.43342 -2.13374 -0.272896 -0.1712 0.426143 -3.52954 
252 2.54649 2.41387 -28.1258 -3.55146 -3.47691 -2.33126 -0.29838 -0.189907 0.40618 -3.52957 
253 2.97598 4.53418 -29.4059 -3.04968 -3.5343 -2.00979 -0.293233 -0.686487 0.328124 -3.53312 
254 4.71821 2.67368 -29.4046 -3.61714 -2.95667 -2.01862 -0.26025 0.0935751 0.924816 -3.5331 
255 0.789464 4.25341 -28.1224 -3.68123 -4.61309 -2.62656 -0.190125 -0.896166 0.349572 -3.53368 
256 0.738275 4.26307 -25.5582 -3.65334 -4.66518 -2.79175 -0.190663 -0.900841 0.309816 -3.53362 
257 1.14781 6.39422 -26.8335 -3.13029 -4.36771 -2.40761 -0.236153 -1.33134 0.462818 -3.53342 
258 2.92242 4.57103 -26.8405 -3.03326 -3.55105 -2.1719 -0.314725 -0.706823 0.288141 -3.53318 
259 1.07085 6.40875 -24.2719 -3.07763 -4.37946 -2.53109 -0.230211 -1.33504 0.407937 -3.53347 
260 4.68721 2.73114 -26.8391 -3.62709 -2.94907 -2.18096 -0.294397 0.0562509 0.900947 -3.53316 
261 2.51798 2.44505 -25.561 -3.56232 -3.49866 -2.49904 -0.323104 -0.209931 0.383785 -3.52962 
262 2.48899 2.47595 -22.9988 -3.55623 -3.50807 -2.63702 -0.345245 -0.229135 0.3618 -3.52967 
263 2.86823 4.60734 -24.2778 -3.00235 -3.55549 -2.30629 -0.333855 -0.725409 0.24859 -3.53323 
264 4.65546 2.78836 -24.2763 -3.61859 -2.93246 -2.31503 -0.327045 0.0184406 0.877193 -3.53321 
265 0.686859 4.27225 -22.9967 -3.61569 -4.69674 -2.9246 -0.187143 -0.904737 0.270098 -3.5336 
266 0.635225 4.28083 -20.4373 -3.57603 -4.71526 -3.02888 -0.180183 -0.908003 0.232744 -3.5336 
267 0.993554 6.42238 -21.7127 -3.02481 -4.37972 -2.6259 -0.220987 -1.33757 0.355599 -3.53353 
268 2.81336 4.64295 -21.7174 -2.96535 -3.5543 -2.41512 -0.349192 -0.741313 0.211957 -3.53327 
269 0.915942 6.43499 -19.1551 -2.97658 -4.37458 -2.69753 -0.2091 -1.33957 0.307512 -3.53359 
270 4.62282 2.84522 -21.7158 -3.59967 -2.91389 -2.42296 -0.356734 -0.0171421 0.855534 -3.53325 
271 2.45948 2.50648 -20.4388 -3.54066 -3.5116 -2.74762 -0.363934 -0.246428 0.341724 -3.52971 
272 2.42943 2.5366 -17.8807 -3.52069 -3.51316 -2.83445 -0.378995 -0.261517 0.324084 -3.52975 
273 2.7578 4.67776 -19.1589 -2.92761 -3.5515 -2.50151 -0.360261 -0.754437 0.179187 -3.5333 
274 4.58923 2.90164 -19.1573 -3.57579 -2.8974 -2.50811 -0.382917 -0.0492564 0.836793 -3.53328 
275 0.583385 4.28874 -17.8797 -3.53883 -4.72603 -3.10923 -0.17051 -0.910904 0.198792 -3.5336 
276 0.531352 4.29595 -15.3234 -3.50628 -4.73247 -3.17015 -0.158825 -0.913743 0.168432 -3.53361 
277 0.838032 6.44652 -16.599 -2.93499 -4.36773 -2.75097 -0.195191 -1.34159 0.264137 -3.53365 
278 2.70157 4.71174 -16.602 -2.89209 -3.54924 -2.56889 -0.36722 -0.765149 0.150298 -3.53332 
279 0.759836 6.45694 -14.0439 -2.90036 -4.3612 -2.79035 -0.17988 -1.34405 0.225221 -3.53369 
280 4.55469 2.95758 -16.6003 -3.55037 -2.8849 -2.57414 -0.40561 -0.0776814 0.821071 -3.53331 
281 2.39886 2.56629 -15.324 -3.49945 -3.51489 -2.90139 -0.390673 -0.274575 0.308844 -3.52977 
282 2.36777 2.59554 -12.7685 -3.47868 -3.51774 -2.95211 -0.399421 -0.285993 0.295693 -3.52979 
283 2.64469 4.74489 -14.0462 -2.86016 -3.5485 -2.62059 -0.370575 -0.773994 0.124846 -3.53333 
284 4.5192 3.01305 -14.0446 -3.52535 -2.87699 -2.62453 -0.425133 -0.10277 0.808076 -3.53332 
285 0.479134 4.30245 -12.7682 -3.47899 -4.73665 -3.21561 -0.145748 -0.916779 0.141393 -3.53362 
286 0.426734 4.30824 -10.2137 -3.45661 -4.73969 -3.24885 -0.131799 -0.920149 0.117205 -3.53362 
287 0.681359 6.46626 -11.4896 -2.87191 -4.35592 -2.81893 -0.163712 -1.34712 0.19018 -3.53373 
288 2.5872 4.77721 -11.4914 -2.83207 -3.54954 -2.65956 -0.370968 -0.781495 0.10221 -3.53334 
289 0.602604 6.47449 -8.93595 -2.84823 -4.35214 -2.83917 -0.147109 -1.3507 0.15832 -3.53375 
290 4.4828 3.06802 -11.4897 -3.50163 -2.87349 -2.66229 -0.441946 -0.125111 0.797333 -3.53333 
291 2.33619 2.62437 -10.2138 -3.45915 -3.52195 -2.98977 -0.405776 -0.296184 0.284231 -3.5298 
292 2.30413 2.65277 -7.65972 -3.44098 -3.52736 -3.01695 -0.410273 -0.305474 0.27406 -3.52981 
293 2.5291 4.80871 -8.93719 -2.80738 -3.55219 -2.6883 -0.369047 -0.78803 0.0817644 -3.53334 
294 4.44552 3.12251 -8.93556 -3.47946 -2.87381 -2.68988 -0.456534 -0.145313 0.788317 -3.53334 
295 0.374154 4.31333 -7.65984 -3.43821 -4.74212 -3.27241 -0.117396 -0.923793 0.0953297 -3.53362 
296 0.321395 4.31773 -5.10638 -3.42265 -4.74411 -3.28818 -0.102851 -0.927409 0.0752148 -3.53363 
297 0.523577 6.48166 -6.38268 -2.82775 -4.34975 -2.85285 -0.130342 -1.35443 0.128933 -3.53377 
298 2.47043 4.83942 -6.38351 -2.78532 -3.55616 -2.70875 -0.36536 -0.793768 0.0629585 -3.53334 
299 0.444302 6.48779 -3.82971 -2.80921 -4.34851 -2.86115 -0.113504 -1.35768 0.101337 -3.53378 
300 4.40737 3.17651 -6.38189 -3.45867 -2.87728 -2.70918 -0.469324 -0.163886 0.780525 -3.53334 
301 2.2716 2.68075 -5.10609 -3.42394 -3.5337 -3.0356 -0.413373 -0.314042 0.264834 -3.52982 
302 2.23861 2.70832 -2.55275 -3.40766 -3.54074 -3.04709 -0.415396 -0.321921 0.256266 -3.52982 
303 2.41121 4.86933 -3.83018 -2.76509 -3.56119 -2.7223 -0.360278 -0.798678 0.0453424 -3.53334 
304 4.36838 3.23001 -3.82856 -3.43896 -2.88331 -2.72155 -0.480611 -0.181194 0.77351 -3.53335 
305 0.268474 4.32147 -2.55319 -3.40896 -4.74565 -3.29736 -0.0883402 -0.930486 0.0563027 -3.53363 
306 0.364827 6.49289 -1.27693 -2.79206 -4.34818 -2.86474 -0.0965207 -1.35979 0.0748797 -3.5338 
307 2.35149 4.89846 -1.27706 -2.74616 -3.56718 -2.72979 -0.353931 -0.802592 0.0285583 -3.53335 
308 4.32859 3.28299 -1.27544 -3.42005 -2.89159 -2.72783 -0.490489 -0.197469 0.766908 -3.53335 
309 2.43639 7.09067 -0.00075406 -2.22121 -3.36379 -2.40273 -0.317714 -1.20935 -0.188529 -3.53289 
310 0.434648 8.66783 -0.000957084 -2.25243 -4.02072 -2.4971 -0.100125 -1.74676 0.082798 -3.53355 