ITEM: TIMESTEP
0
ITEM: NUMBER OF ATOMS
37664
ITEM: BOX BOUNDS ff ff ff
-100 100
-100 100
-156.15 156.15
ITEM: ATOMS id x y z v_peratom_sxx v_peratom_syy v_peratom_szz v_peratom_sxy v_peratom_sxz v_peratom_syz c_atomPE 
1 -0.00391514 -0.0020444 0.00094844 -5.17828 -5.16981 -9.53936 0.0009066 -0.0134285 -0.036703 -3.51526 
2 -0.00411779 -0.0017969 2.55416 -5.17753 -5.16912 -9.5378 0.000181253 -0.0142397 -0.0360089 -3.51527 
3 -0.00433287 -0.00150814 5.10745 -5.17234 -5.16438 -9.5264 -0.000772026 -0.0136193 -0.0352643 -3.51532 
4 -0.00455407 -0.00118416 7.66096 -5.16191 -5.15501 -9.50379 -0.00194257 -0.0111126 -0.0345676 -3.51542 
5 -0.00476533 -0.000839219 10.2148 -5.1453 -5.14014 -9.46797 -0.00324379 -0.0066021 -0.0338814 -3.51558 
6 -0.00494317 -0.000492193 12.7693 -5.12141 -5.11864 -9.41637 -0.00452855 -0.000393785 -0.0330337 -3.51581 
7 -0.00506181 -0.000161578 15.3246 -5.0889 -5.08891 -9.34587 -0.00563492 0.00684248 -0.0317963 -3.51614 
8 -0.00509926 0.000138701 17.8809 -5.04587 -5.04877 -9.2526 -0.00643617 0.0142529 -0.0299926 -3.51657 
9 -0.00504216 0.000401053 20.4386 -4.98961 -4.99516 -9.13186 -0.0068713 0.021013 -0.0275785 -3.51712 
10 -0.00488786 0.000623467 22.9981 -4.9162 -4.92393 -8.97814 -0.00694931 0.0264964 -0.0246704 -3.51781 
11 -0.00464368 0.000807119 25.5599 -4.82037 -4.82965 -8.78577 -0.00673414 0.0303633 -0.0215222 -3.51867 
12 -0.00432411 0.00095355 28.1242 -4.69573 -4.70593 -8.55053 -0.00631993 0.0325692 -0.0184654 -3.5197 
13 -0.00394688 0.00106251 30.6916 -4.53633 -4.54688 -8.27283 -0.00580475 0.0333126 -0.0158279 -3.52089 
14 -0.00352896 0.0011311 33.2622 -4.34045 -4.3509 -7.96133 -0.00526851 0.0329471 -0.0138548 -3.52219 
15 -0.00308344 0.00115407 35.8361 -4.11582 -4.12585 -7.63348 -0.00476045 0.0318875 -0.0126608 -3.52346 
16 -0.00261771 0.00112464 38.4127 -3.87843 -3.88783 -7.30758 -0.0042972 0.0305231 -0.0122351 -3.52457 
17 -0.00213283 0.00103464 40.9919 -3.63983 -3.64845 -6.99005 -0.0038666 0.0291644 -0.0124948 -3.52546 
18 -0.00162115 0.000873341 43.5732 -3.40102 -3.40873 -6.66811 -0.00342601 0.0280992 -0.0133643 -3.52619 
19 -0.00106248 0.000624811 46.157 -3.13692 -3.14338 -6.30491 -0.00286973 0.0275998 -0.0147946 -3.52693 
20 -0.000430358 0.000264092 48.7436 -2.75391 -2.75747 -5.86488 -0.00160194 0.0271918 -0.0166836 -3.52781 
21 5.95933e-07 -4.11185e-08 51.3317 -1.92317 -1.9229 -4.92079 0.000129431 -0.00139075 0.000872363 -3.53204 
22 4.01304e-07 -1.42881e-06 53.9138 -0.851921 -0.851932 -8.91781 -4.45589e-09 -2.80092e-05 -7.18969e-05 -3.48169 
23 8.71386e-07 -1.98378e-06 56.3885 1.68559 1.6856 1.87687 -1.60906e-05 2.46114e-05 -3.15718e-07 -2.55581 
24 -1.23087e-07 -1.12453e-06 -53.8876 -2.60693 -2.60696 -6.54959 -1.66262e-05 8.83299e-06 -3.28437e-05 -3.40183 
25 1.02659e-07 -1.55837e-06 -51.3239 -2.07921 -2.07929 -5.57963 -0.000386573 0.000934731 0.00212629 -3.52873 
26 -0.0002421 -0.000604234 -48.7462 -2.69452 -2.69278 -6.14826 0.0051682 -0.0152843 -0.0377717 -3.52639 
27 -0.00055527 -0.00144952 -46.1646 -3.02154 -3.01823 -6.34841 0.00916056 -0.0130334 -0.0351184 -3.52678 
28 -0.000776489 -0.00208856 -43.5822 -3.30318 -3.29809 -6.60871 0.0102368 -0.00929771 -0.0330143 -3.52634 
29 -0.000915923 -0.00257263 -41.0007 -3.55887 -3.55166 -6.89687 0.0104329 -0.00547705 -0.0314978 -3.52574 
30 -0.00100066 -0.00293197 -38.421 -3.80941 -3.8 -7.20536 0.0100584 -0.00191752 -0.0303644 -3.52491 
31 -0.00105901 -0.00318493 -35.8434 -4.05603 -4.04459 -7.53016 0.0092547 0.00102883 -0.0295068 -3.52385 
32 -0.00111913 -0.00334596 -33.2686 -4.28929 -4.27627 -7.86018 0.00816287 0.00300859 -0.0289432 -3.52262 
33 -0.00120624 -0.00342953 -30.6968 -4.49613 -4.48214 -8.17785 0.00695344 0.00379566 -0.028745 -3.52133 
34 -0.00133834 -0.00345049 -28.1283 -4.668 -4.65374 -8.46611 0.00580012 0.00339262 -0.0289699 -3.52011 
35 -0.00152298 -0.00342286 -25.5628 -4.80394 -4.79001 -8.71443 0.00483545 0.00205248 -0.0296125 -3.51903 
36 -0.00175636 -0.00335839 -23.0001 -4.90802 -4.89487 -8.91991 0.00411883 0.000201241 -0.0305916 -3.51811 
37 -0.00202534 -0.00326613 -20.4397 -4.98613 -4.97401 -9.08494 0.00363256 -0.00171247 -0.0317805 -3.51737 
38 -0.00231151 -0.00315303 -17.8812 -5.04408 -5.03304 -9.21456 0.00330602 -0.00337138 -0.0330503 -3.51678 
39 -0.00259626 -0.00302496 -15.3243 -5.08679 -5.07672 -9.31451 0.00305391 -0.00468176 -0.0342963 -3.51632 
40 -0.00286502 -0.00288707 -12.7685 -5.11806 -5.10878 -9.39021 0.0028092 -0.00576825 -0.0354335 -3.51597 
41 -0.00310983 -0.00274293 -10.2137 -5.14076 -5.13204 -9.44637 0.00253709 -0.00687869 -0.0363765 -3.5157 
42 -0.00332997 -0.00259287 -7.65947 -5.15696 -5.14856 -9.48684 0.00222722 -0.00824228 -0.0370304 -3.51552 
43 -0.00353093 -0.00243258 -5.10573 -5.16812 -5.15981 -9.51459 0.00187273 -0.00993573 -0.0373102 -3.51539 
44 -0.00372238 -0.00225335 -2.55231 -5.1751 -5.16673 -9.53171 0.00144924 -0.0117998 -0.0371828 -3.5153 
45 0.0922828 2.15814 1.27649 -4.05334 -5.13713 -3.83745 -0.05078 -0.449931 -0.00054494 -3.52907 
46 0.0657501 2.1594 3.82965 -4.04836 -5.13682 -3.83126 -0.0396575 -0.449922 -0.00999962 -3.52909 
47 0.0392174 2.16035 6.38296 -4.04425 -5.13433 -3.81669 -0.0285079 -0.448594 -0.0198751 -3.52911 
48 0.012725 2.16099 8.93657 -4.0416 -5.12941 -3.79255 -0.0171244 -0.445986 -0.0303987 -3.52914 
49 -0.0136827 2.16128 11.4907 -4.04128 -5.12163 -3.75726 -0.00535509 -0.442434 -0.041736 -3.52918 
50 -0.0399652 2.16121 14.0454 -4.04409 -5.1102 -3.7088 0.00678274 -0.438462 -0.05406 -3.52922 
51 -0.0660927 2.16077 16.6011 -4.05041 -5.09386 -3.64456 0.0190458 -0.434601 -0.0676186 -3.52928 
52 -0.0920493 2.15996 19.1581 -4.05987 -5.07062 -3.56123 0.0309766 -0.431253 -0.0827478 -3.52934 
53 -0.117834 2.15877 21.7166 -4.07101 -5.03754 -3.45471 0.0419583 -0.428622 -0.0997939 -3.52942 
54 -0.143457 2.15723 24.277 -4.08066 -4.99034 -3.32037 0.0512907 -0.426704 -0.118898 -3.52953 
55 -0.168937 2.15538 26.8398 -4.08312 -4.92305 -3.1538 0.0582946 -0.42532 -0.139593 -3.52967 
56 -0.194295 2.15327 29.4054 -4.06905 -4.82793 -2.95251 0.0624851 -0.424164 -0.16024 -3.52986 
57 -0.219544 2.151 31.9742 -4.02528 -4.69689 -2.71855 0.0638564 -0.422838 -0.177719 -3.53012 
58 -0.244679 2.14866 34.5463 -3.93809 -4.52553 -2.46085 0.0631959 -0.420865 -0.188562 -3.53047 
59 -0.269671 2.14629 37.1216 -3.80203 -4.31925 -2.1936 0.0620464 -0.417705 -0.192511 -3.53087 
60 -0.294472 2.14381 39.6996 -3.62547 -4.09271 -1.9282 0.0619607 -0.412938 -0.194629 -3.53128 
61 -0.319054 2.14113 42.2798 -3.42038 -3.85664 -1.6649 0.0636407 -0.406708 -0.201044 -3.53164 
62 -0.34345 2.13816 44.8621 -3.19341 -3.60783 -1.39218 0.0663262 -0.399599 -0.218417 -3.53193 
63 -0.367813 2.13511 47.4464 -2.91507 -3.29627 -1.1067 0.0667105 -0.39394 -0.238764 -3.53223 
64 -0.392512 2.13371 50.032 -2.43249 -2.8015 -0.493659 0.0610083 -0.413266 -0.205419 -3.53324 
65 -0.418483 2.1304 52.6263 -1.76578 -2.00552 -0.561411 0.045495 -0.308947 -0.729964 -3.52457 
66 -0.44812 2.14653 55.1778 6.9766 7.73843 2.43089 0.0330171 -0.597321 1.77022 -3.02528 
67 0.649859 2.05055 -55.162 1.38945 0.84239 -0.678361 -0.188252 -0.0991976 1.20761 -3.26036 
68 0.633027 2.08274 -52.6122 -1.11197 -2.2187 -0.457712 -0.37449 -0.489289 -0.161418 -3.53566 
69 0.607028 2.08678 -50.0319 -2.00562 -2.55591 -0.875805 -0.169272 -0.429832 0.0761768 -3.53397 
70 0.581263 2.08803 -47.4533 -2.63812 -3.07261 -1.21038 -0.124973 -0.403537 0.147197 -3.5329 
71 0.556416 2.09137 -44.8713 -3.05997 -3.44225 -1.36858 -0.103424 -0.397788 0.191816 -3.53225 
72 0.53177 2.09554 -42.2894 -3.35938 -3.72777 -1.5969 -0.0941418 -0.401465 0.204077 -3.53182 
73 0.507027 2.09995 -39.7087 -3.60352 -3.98368 -1.84711 -0.0924792 -0.406882 0.210496 -3.53141 
74 0.482084 2.1045 -37.13 -3.80623 -4.22157 -2.11031 -0.0965816 -0.411994 0.214377 -3.53097 
75 0.456934 2.10916 -34.5539 -3.96429 -4.43633 -2.37933 -0.104775 -0.416421 0.213412 -3.53055 
76 0.431602 2.11393 -31.9808 -4.07333 -4.61818 -2.6421 -0.114724 -0.42044 0.204911 -3.53017 
77 0.406112 2.11875 -29.4109 -4.13663 -4.7619 -2.88498 -0.123893 -0.424295 0.188878 -3.52988 
78 0.380477 2.12353 -26.8443 -4.16452 -4.86962 -3.09796 -0.130413 -0.427957 0.167917 -3.52965 
79 0.354702 2.12817 -24.2806 -4.16893 -4.94772 -3.27685 -0.133451 -0.43127 0.145107 -3.52948 
80 0.3288 2.13258 -21.7194 -4.15981 -5.00343 -3.42223 -0.13299 -0.434103 0.122724 -3.52936 
81 0.302786 2.13671 -19.1603 -4.14423 -5.04302 -3.53747 -0.129458 -0.436428 0.102022 -3.52928 
82 0.276681 2.14053 -16.6029 -4.12674 -5.0713 -3.62701 -0.123431 -0.438327 0.083483 -3.52921 
83 0.250504 2.14403 -14.0467 -4.11 -5.09174 -3.69534 -0.115474 -0.439974 0.0671257 -3.52917 
84 0.224268 2.1472 -11.4916 -4.09534 -5.10671 -3.74649 -0.106086 -0.441575 0.0527436 -3.52913 
85 0.197979 2.15003 -8.93722 -4.08318 -5.11776 -3.78383 -0.0956931 -0.443298 0.0400472 -3.52911 
86 0.171636 2.15253 -6.38337 -4.07339 -5.12589 -3.81002 -0.0846752 -0.445198 0.0287213 -3.52909 
87 0.145238 2.15471 -3.8299 -4.06551 -5.13168 -3.82699 -0.0733625 -0.447154 0.0184298 -3.52908 
88 0.118785 2.15658 -1.27665 -4.05898 -5.1354 -3.83597 -0.062015 -0.448871 0.00880512 -3.52907 
89 0.215205 4.32479 -0.000782699 -3.39195 -4.74246 -3.30012 -0.0732792 -0.929262 0.0363123 -3.53365 
90 0.285141 6.49731 1.27498 -2.77264 -4.34454 -2.86322 -0.0786684 -1.3563 0.0484414 -3.53382 
91 2.20498 2.73569 -5.78726e-05 -3.38889 -3.544 -3.05078 -0.416095 -0.328437 0.246098 -3.52984 
92 2.17129 2.76248 2.55306 -3.37443 -3.55322 -3.04958 -0.416063 -0.334476 0.23817 -3.52984 
93 2.29122 4.92709 1.2753 -2.72479 -3.57055 -2.73019 -0.345819 -0.802848 0.0116608 -3.53336 
94 4.28792 3.33571 1.27703 -3.39944 -2.8979 -2.72669 -0.498223 -0.212122 0.758708 -3.53336 
95 0.162251 4.32735 2.55215 -3.38274 -4.74377 -3.29734 -0.0590012 -0.929491 0.0179748 -3.53366 
96 0.109294 4.32925 5.10517 -3.37625 -4.74492 -3.28822 -0.0443748 -0.928217 -0.00072681 -3.53367 
97 0.205729 6.50048 3.82764 -2.76264 -4.34715 -2.85783 -0.061066 -1.35534 0.0222681 -3.53383 
98 2.23083 4.95466 3.82833 -2.71054 -3.57977 -2.72607 -0.336355 -0.804488 -0.0044366 -3.53336 
99 0.12639 6.50261 6.38045 -2.75787 -4.35125 -2.84756 -0.0427559 -1.35329 -0.00452182 -3.53384 
100 4.24678 3.38762 3.83009 -3.38351 -2.91167 -2.72149 -0.504628 -0.226729 0.752218 -3.53336 
101 2.13725 2.7888 5.10628 -3.36085 -3.56382 -3.04168 -0.414503 -0.339876 0.23024 -3.52984 
102 2.10289 2.81463 7.65975 -3.34871 -3.57602 -3.02625 -0.410943 -0.344767 0.222132 -3.52983 
103 2.17012 4.98137 6.38152 -2.69942 -3.59078 -2.71552 -0.324798 -0.805343 -0.0207491 -3.53336 
104 4.20497 3.43891 6.38333 -3.36938 -2.92835 -2.71006 -0.508724 -0.241057 0.745474 -3.53336 
105 0.0564017 4.33047 7.6584 -3.37383 -4.74603 -3.27213 -0.0291598 -0.925651 -0.0201706 -3.53368 
106 0.00364185 4.33099 10.212 -3.37701 -4.74709 -3.24816 -0.0132459 -0.922319 -0.0407189 -3.53369 
107 0.0472118 6.50368 8.93355 -2.76015 -4.35707 -2.83192 -0.0237562 -1.3508 -0.0324437 -3.53383 
108 2.10916 5.00719 8.93501 -2.69267 -3.60364 -2.69773 -0.31086 -0.805826 -0.0377175 -3.53336 
109 -0.0317378 6.50367 11.4871 -2.77087 -4.36475 -2.81019 -0.00427126 -1.34862 -0.0620681 -3.53382 
110 4.16252 3.48956 8.93688 -3.35776 -2.94814 -2.69157 -0.510065 -0.255466 0.738278 -3.53336 
111 2.06826 2.83995 10.2136 -3.33881 -3.58988 -3.00206 -0.404919 -0.349462 0.213614 -3.52983 
112 2.03339 2.86471 12.768 -3.33197 -3.60518 -2.96745 -0.39608 -0.354462 0.20435 -3.52982 
113 2.048 5.03209 11.489 -2.69155 -3.61824 -2.67162 -0.294403 -0.806544 -0.0559225 -3.53336 
114 4.11947 3.53952 11.4909 -3.34943 -2.97115 -2.66485 -0.508256 -0.270471 0.730358 -3.53336 
115 -0.0489303 4.33079 12.7662 -3.38715 -4.74791 -3.21504 0.00326834 -0.91887 -0.0627815 -3.5337 
116 -0.101278 4.32986 15.3211 -3.40505 -4.74796 -3.17101 0.0200723 -0.915859 -0.0868635 -3.5337 
117 -0.110417 6.50256 14.0412 -2.79082 -4.37421 -2.78124 0.0153503 -1.34732 -0.0940586 -3.53379 
118 1.98668 5.05604 14.0436 -2.69701 -3.63421 -2.63573 -0.275444 -0.808194 -0.076087 -3.53336 
119 -0.188807 6.50033 16.5961 -2.82021 -4.38504 -2.74331 0.0346862 -1.34722 -0.129175 -3.53375 
120 4.07585 3.58878 14.0455 -3.34504 -2.99732 -2.62832 -0.502979 -0.28673 0.721309 -3.53336 
121 1.99831 2.88891 15.3233 -3.3288 -3.62138 -2.92035 -0.38423 -0.360389 0.193877 -3.5298 
122 1.96303 2.91251 17.8795 -3.32946 -3.63748 -2.85819 -0.369299 -0.367908 0.181619 -3.52978 
123 1.92521 5.07901 16.5991 -2.70957 -3.6509 -2.58818 -0.254091 -0.811455 -0.0990411 -3.53335 
124 4.03166 3.63729 16.601 -3.34496 -3.02637 -2.58 -0.493979 -0.305007 0.710567 -3.53335 
125 -0.153385 4.32819 17.8771 -3.43088 -4.7462 -3.11363 0.0366948 -0.913609 -0.113561 -3.5337 
126 -0.205249 4.32579 20.4343 -3.46401 -4.74085 -3.03959 0.0525704 -0.912167 -0.143477 -3.53369 
127 -0.266906 6.49697 19.1521 -2.85868 -4.39633 -2.69386 0.0533097 -1.34829 -0.16822 -3.5337 
128 1.86361 5.10099 19.1557 -2.72922 -3.66728 -2.52652 -0.230492 -0.816911 -0.125647 -3.53333 
129 -0.344718 6.4925 21.7094 -2.90536 -4.40638 -2.62932 0.0708365 -1.35017 -0.211891 -3.53363 
130 3.9869 3.68502 19.1576 -3.34911 -3.05771 -2.51744 -0.48104 -0.326104 0.69742 -3.53334 
131 1.92756 2.93551 20.4371 -3.33339 -3.65192 -2.77785 -0.351309 -0.37763 0.166946 -3.52975 
132 1.89188 2.95789 22.9964 -3.33895 -3.66229 -2.6757 -0.330372 -0.389988 0.149305 -3.52972 
133 1.80185 5.12193 21.7137 -2.75529 -3.68172 -2.44772 -0.204816 -0.825011 -0.156654 -3.53331 
134 3.94158 3.73194 21.7156 -3.35677 -3.0902 -2.43776 -0.464008 -0.350762 0.681067 -3.53332 
135 -0.25688 4.32266 22.9932 -3.50275 -4.72903 -2.94471 0.0670865 -0.911334 -0.177019 -3.53369 
136 -0.308293 4.31887 25.5541 -3.54374 -4.70623 -2.82406 0.079601 -0.910757 -0.214006 -3.53369 
137 -0.422248 6.48696 24.2683 -2.95849 -4.41222 -2.545 0.0869347 -1.35224 -0.260474 -3.53356 
138 1.73994 5.14186 24.2735 -2.78614 -3.69169 -2.34821 -0.177321 -0.836014 -0.192435 -3.53327 
139 -0.499497 6.48042 26.8293 -3.01468 -4.40887 -2.43514 0.101277 -1.35377 -0.313295 -3.5335 
140 3.89569 3.77803 24.2754 -3.36622 -3.12177 -2.33768 -0.442902 -0.379466 0.660789 -3.53328 
141 1.85601 2.97967 25.5578 -3.34285 -3.66473 -2.5479 -0.306791 -0.405029 0.128501 -3.52967 
142 1.81997 3.00088 28.1217 -3.33918 -3.65328 -2.39108 -0.281279 -0.422025 0.105198 -3.52962 
143 1.67789 5.1608 26.8355 -2.81849 -3.6932 -2.22431 -0.148551 -0.849841 -0.232501 -3.53323 
144 3.84926 3.82328 26.8373 -3.37413 -3.14878 -2.2138 -0.418149 -0.412056 0.636293 -3.53323 
145 -0.359509 4.31449 28.1175 -3.58073 -4.66563 -2.67269 0.089455 -0.910043 -0.253043 -3.53372 
146 -0.410543 4.30968 30.6838 -3.60301 -4.59772 -2.48725 0.0960571 -0.908809 -0.290826 -3.5338 
147 -0.576465 6.47304 29.3927 -3.06755 -4.38837 -2.29357 0.113425 -1.35408 -0.367922 -3.53347 
148 1.61572 5.17886 29.4001 -2.84617 -3.68012 -2.07283 -0.119658 -0.865691 -0.274732 -3.53317 
149 -0.653152 6.46512 31.9592 -3.10576 -4.33892 -2.11551 0.122702 -1.3527 -0.419415 -3.53349 
150 3.80239 3.86776 29.4017 -3.3745 -3.16496 -2.063 -0.390944 -0.447046 0.608343 -3.53317 
151 1.78382 3.02164 30.6885 -3.31833 -3.61917 -2.2037 -0.255289 -0.438921 0.0816483 -3.52957 
152 1.7477 3.04211 33.2586 -3.26675 -3.55128 -1.98787 -0.231171 -0.452076 0.0620836 -3.52955 
153 1.55353 5.19626 31.9676 -2.8585 -3.64348 -1.89224 -0.0927282 -0.881355 -0.314516 -3.53311 
154 3.75525 3.91159 31.9692 -3.35723 -3.16033 -1.8834 -0.363556 -0.480786 0.579618 -3.53311 
155 -0.461395 4.30466 33.2534 -3.59455 -4.49117 -2.2689 0.0991645 -0.906545 -0.322183 -3.53396 
156 -0.512031 4.29963 35.8265 -3.53744 -4.33709 -2.02628 0.0993512 -0.902325 -0.342557 -3.53423 
157 -0.72954 6.45701 34.5292 -3.11159 -4.24507 -1.90125 0.128281 -1.34913 -0.460706 -3.53362 
158 1.49147 5.21336 34.5386 -2.83921 -3.57124 -1.68426 -0.0706809 -0.892554 -0.344827 -3.53308 
159 -0.805562 6.44911 37.1028 -3.06366 -4.09219 -1.66093 0.129856 -1.34206 -0.486101 -3.53388 
160 3.70815 3.95503 34.5399 -3.30705 -3.12094 -1.67614 -0.339142 -0.507377 0.555113 -3.53307 
161 1.71178 3.06249 35.8321 -3.17034 -3.43959 -1.75078 -0.211569 -0.457554 0.0510567 -3.52961 
162 1.67622 3.08289 38.4086 -3.02342 -3.28232 -1.50318 -0.197579 -0.454915 0.0482199 -3.52977 
163 1.42978 5.23055 37.1128 -2.76922 -3.45068 -1.45574 -0.0561688 -0.893981 -0.359689 -3.53313 
164 3.66146 3.99834 37.1141 -3.20576 -3.0325 -1.44786 -0.320477 -0.521361 0.540015 -3.53313 
165 -0.562368 4.29465 38.4027 -3.42273 -4.13783 -1.77456 0.098289 -0.894949 -0.353449 -3.53458 
166 -0.612311 4.28957 40.9816 -3.25792 -3.90946 -1.52613 0.0982013 -0.883876 -0.363833 -3.53492 
167 -0.881089 6.4415 39.6796 -2.95027 -3.87989 -1.41446 0.128676 -1.32974 -0.498671 -3.53425 
168 1.36871 5.24801 39.6902 -2.63797 -3.27711 -1.21852 -0.0495616 -0.884341 -0.362336 -3.5333 
169 -0.95601 6.43389 42.2588 -2.77982 -3.62831 -1.17954 0.127444 -1.31213 -0.511184 -3.53461 
170 3.61541 4.04169 39.6913 -3.04307 -2.88997 -1.21089 -0.307951 -0.523918 0.532959 -3.53329 
171 1.64102 3.10324 40.9876 -2.83438 -3.08837 -1.25278 -0.187515 -0.449385 0.0455949 -3.53 
172 1.60609 3.12338 43.5688 -2.61321 -2.86585 -0.997218 -0.178856 -0.447502 0.0348747 -3.53027 
173 1.3083 5.26559 42.2698 -2.45192 -3.05972 -0.982692 -0.0480424 -0.870122 -0.367172 -3.53355 
174 3.56997 4.08498 42.2709 -2.8264 -2.70181 -0.976997 -0.299378 -0.524842 0.523094 -3.53354 
175 -0.661842 4.28417 43.5623 -3.05425 -3.66241 -1.28046 0.100241 -0.869948 -0.382101 -3.53523 
176 -0.711127 4.27844 46.1446 -2.82379 -3.39473 -1.01759 0.103596 -0.855321 -0.413692 -3.53549 
177 -1.03038 6.42607 44.8394 -2.55939 -3.34446 -0.962868 0.127529 -1.29154 -0.528897 -3.53496 
178 1.24842 5.28313 44.851 -2.21832 -2.80329 -0.749872 -0.0498755 -0.8598 -0.385714 -3.53386 
179 -1.10458 6.41838 47.4203 -2.296 -3.01705 -0.776404 0.129763 -1.27252 -0.542038 -3.53528 
180 3.52493 4.12813 44.852 -2.56111 -2.47543 -0.751985 -0.292102 -0.53304 0.501838 -3.53383 
181 1.57124 3.14329 46.1516 -2.36458 -2.6174 -0.71904 -0.17122 -0.456858 0.00767021 -3.53054 
182 1.53633 3.16338 48.7364 -2.08955 -2.36151 -0.347717 -0.183218 -0.479889 -0.0323055 -3.53015 
183 1.1886 5.30066 47.4331 -1.94357 -2.5052 -0.518758 -0.0633726 -0.86614 -0.430857 -3.53412 
184 3.48001 4.17121 47.4338 -2.24096 -2.22055 -0.543931 -0.286163 -0.559265 0.457739 -3.53404 
185 -0.760666 4.2734 48.7285 -2.603 -3.07462 -0.669952 0.0971285 -0.846668 -0.419519 -3.53516 
186 -0.811621 4.26877 51.3169 -1.98843 -2.35106 0.311828 0.0838891 -0.841935 -0.653073 -3.53805 
187 -1.17889 6.41384 50.0002 -2.0573 -2.54163 -0.333471 0.0867571 -1.27782 -0.619776 -3.53573 
188 1.12775 5.31799 50.0156 -1.56925 -2.07903 -0.0212294 -0.110549 -0.945564 -0.597549 -3.53484 
189 -1.25707 6.40546 52.5877 -1.6124 -2.48693 0.643237 0.175792 -1.31624 -0.613059 -3.53282 
190 3.43505 4.21346 50.0156 -1.75904 -1.85302 -0.0391599 -0.309457 -0.668743 0.311606 -3.5349 
191 1.50027 3.18358 51.3264 -1.43163 -1.70133 0.657897 -0.17263 -0.548529 -0.133059 -3.53273 
192 1.46587 3.20964 53.9052 0.026702 0.953991 -0.795878 0.566307 -0.560982 0.138972 -3.37565 
193 1.06597 5.33731 52.6041 -1.2492 -1.89859 0.441463 -0.236982 -0.801316 -0.410792 -3.52779 
194 3.38747 4.26008 52.6041 -1.41016 -1.71362 0.389802 -0.39066 -0.639425 0.587368 -3.52746 
195 -0.866323 4.2769 53.8949 -0.0508644 -0.206134 -1.18047 0.0793772 -1.26166 1.02744 -3.38132 
196 1.3298 4.1174 -56.3442 5.06942 2.90559 1.60242 -1.25473 -0.273892 0.110264 -2.79034 
197 -1.33605 6.40133 55.1665 4.18004 2.79746 1.28996 0.31992 -1.5232 0.197882 -3.26107 
198 1.00488 5.36129 55.1754 5.64209 6.63186 2.70775 0.369867 -0.636457 -0.0326118 -3.15047 
199 1.98371 6.26223 -55.1334 6.93988 9.11552 2.92915 0.134187 -0.847908 -0.525665 -3.02309 
200 3.34328 4.30996 55.1754 5.53065 7.35768 2.86912 0.118702 -0.278622 0.562639 -3.15115 
201 2.87095 2.09325 -56.362 4.04253 6.0065 1.88101 -3.16453 0.252646 0.341792 -2.79939 
202 2.84551 2.1252 -53.8874 0.165015 0.763297 -3.02648 -0.982107 -0.732813 -0.162364 -3.51266 
203 3.53831 4.21674 -55.1525 6.03166 6.27391 1.75935 0.302437 -1.21951 -0.0444735 -3.1433 
204 5.07312 2.13635 -55.1525 6.04997 7.03887 2.00315 0.446064 -0.52812 0.0805373 -3.14511 
205 1.29262 4.16451 -53.8815 0.861258 -0.348245 -3.67507 -0.408874 -0.573879 0.839 -3.51412 
206 1.24176 4.17585 -51.3147 -1.28701 -1.91114 -0.376347 -0.214921 -0.880494 0.220618 -3.53903 
207 1.90264 6.26187 -52.5941 -0.917888 -1.45675 -0.572969 -0.184161 -1.168 0.820118 -3.52792 
208 3.4607 4.22944 -52.6036 -0.7489 -0.925841 0.0954297 -0.677507 -0.496044 0.19139 -3.53019 
209 1.82403 6.27282 -50.0101 -1.64509 -2.32861 -0.267941 -0.19968 -1.28154 0.428762 -3.53672 
210 5.01221 2.17771 -52.6036 -1.34186 -0.348581 0.0545993 -0.502558 0.0192203 0.991512 -3.52952 
211 2.80522 2.14769 -51.32 -1.1037 -0.94689 -0.112943 -0.278142 -0.333089 0.262133 -3.53414 
212 2.77225 2.17449 -48.7405 -1.97019 -1.8381 -0.546838 -0.291041 -0.22654 0.332773 -3.53088 
213 3.40036 4.25787 -50.02 -1.43202 -1.65433 -0.140432 -0.408618 -0.709613 0.283925 -3.53497 
214 4.971 2.23184 -50.02 -1.84409 -1.27433 -0.114161 -0.296529 0.0200318 0.83401 -3.53501 
215 1.18964 4.18027 -48.7356 -2.17909 -2.7591 -0.791419 -0.179879 -0.850083 0.275971 -3.5364 
216 1.13968 4.18607 -46.1541 -2.63787 -3.1934 -0.977671 -0.16285 -0.833411 0.396038 -3.53604 
217 1.74858 6.27835 -47.4306 -2.10129 -2.83579 -0.679927 -0.212651 -1.2411 0.540005 -3.53588 
218 3.345 4.28726 -47.4411 -1.89922 -2.2102 -0.56413 -0.30046 -0.640614 0.331598 -3.53414 
219 1.67461 6.28991 -44.8496 -2.47072 -3.19289 -0.866184 -0.198792 -1.24437 0.599505 -3.53534 
220 4.93479 2.28427 -47.4403 -2.32295 -1.78989 -0.541861 -0.211454 0.10373 0.861892 -3.5342 
221 2.74192 2.20156 -46.1594 -2.36538 -2.27005 -0.739608 -0.230189 -0.163347 0.388531 -3.53074 
222 2.71349 2.23002 -43.5776 -2.67788 -2.59334 -0.950181 -0.213471 -0.151462 0.409254 -3.53037 
223 3.29145 4.31926 -44.8605 -2.23483 -2.57537 -0.718735 -0.25914 -0.62601 0.367464 -3.53392 
224 4.90184 2.33718 -44.8595 -2.65801 -2.14518 -0.722862 -0.176501 0.141638 0.893568 -3.53393 
225 1.09048 4.1944 -43.5722 -2.97694 -3.51335 -1.20467 -0.149595 -0.841179 0.422114 -3.53553 
226 1.04119 4.20349 -40.9911 -3.23715 -3.78855 -1.44531 -0.14699 -0.854237 0.429005 -3.53509 
227 1.60085 6.30323 -42.2685 -2.75348 -3.49916 -1.09232 -0.197704 -1.26208 0.615619 -3.53484 
228 3.23883 4.35276 -42.2796 -2.50849 -2.87214 -0.91791 -0.241604 -0.628092 0.385464 -3.5336 
229 1.52662 6.31727 -39.6887 -2.96459 -3.76643 -1.33565 -0.204383 -1.2813 0.619549 -3.53439 
230 4.87042 2.39101 -42.2786 -2.9414 -2.42801 -0.927978 -0.165292 0.153646 0.918927 -3.5336 
231 2.68562 2.25926 -40.9965 -2.93415 -2.85516 -1.17977 -0.21041 -0.149293 0.423404 -3.53006 
232 2.65785 2.28912 -38.4169 -3.14798 -3.07038 -1.42153 -0.214986 -0.148503 0.435019 -3.52981 
233 3.18644 4.38735 -39.6996 -2.72607 -3.11246 -1.1411 -0.23586 -0.632976 0.396054 -3.53333 
234 4.83959 2.44583 -39.6987 -3.17847 -2.64638 -1.15129 -0.165572 0.158532 0.940785 -3.53333 
235 0.991517 4.21288 -38.4116 -3.43705 -4.033 -1.696 -0.151854 -0.866738 0.430311 -3.53468 
236 0.941413 4.22252 -35.8346 -3.5783 -4.24338 -1.95134 -0.161268 -0.876897 0.425125 -3.53431 
237 1.45175 6.33184 -37.1111 -3.10708 -3.99011 -1.58745 -0.21502 -1.29733 0.614638 -3.53398 
238 3.13403 4.42292 -37.1217 -2.88782 -3.29634 -1.37454 -0.239021 -0.639459 0.398386 -3.53315 
239 1.3763 6.34696 -34.5366 -3.18187 -4.15908 -1.83396 -0.225321 -1.30969 0.595958 -3.53367 
240 4.80905 2.50165 -37.1207 -3.36617 -2.80316 -1.38357 -0.175578 0.158182 0.954801 -3.53315 
241 2.63007 2.31957 -35.8395 -3.31829 -3.23941 -1.66767 -0.226605 -0.15049 0.440889 -3.52964 
242 2.60227 2.35051 -33.2651 -3.44052 -3.36013 -1.90782 -0.245046 -0.158582 0.437166 -3.52955 
243 3.08152 4.45934 -34.5466 -2.99154 -3.42244 -1.60455 -0.25039 -0.650774 0.387242 -3.53306 
244 4.77874 2.55834 -34.5455 -3.49916 -2.90038 -1.61277 -0.195437 0.147652 0.95595 -3.53306 
245 0.890942 4.23241 -33.2606 -3.66031 -4.41072 -2.19989 -0.171839 -0.88495 0.409392 -3.53401 
246 0.840176 4.24244 -30.69 -3.69054 -4.53228 -2.42809 -0.180547 -0.891701 0.382065 -3.5338 
247 1.30039 6.36248 -31.9656 -3.19898 -4.27135 -2.0589 -0.23221 -1.31943 0.561198 -3.53349 
248 3.0288 4.49632 -31.9747 -3.04199 -3.49802 -1.81846 -0.268273 -0.667853 0.361478 -3.53307 
249 1.22407 6.37805 -29.3982 -3.17628 -4.33661 -2.25125 -0.234634 -1.32709 0.513923 -3.53342 
250 4.74847 2.61563 -31.9735 -3.57991 -2.94746 -1.82666 -0.223585 0.124548 0.944121 -3.53306 
251 2.57437 2.38178 -30.6939 -3.51609 -3.43679 -2.1307 -0.26853 -0.173397 0.423642 -3.52954 
252 2.5462 2.41313 -28.126 -3.55353 -3.47989 -2.3279 -0.294127 -0.192518 0.403662 -3.52957 
253 2.9757 4.53346 -29.4062 -3.0516 -3.53709 -2.00795 -0.289677 -0.688247 0.325596 -3.53312 
254 4.71796 2.67318 -29.4049 -3.61884 -2.95968 -2.01664 -0.256642 0.0916955 0.923769 -3.5331 
255 0.789154 4.25242 -28.1227 -3.68366 -4.61396 -2.62632 -0.185592 -0.897557 0.346315 -3.53368 
256 0.73789 4.26212 -25.5585 -3.65487 -4.66548 -2.79105 -0.186416 -0.902516 0.306782 -3.53362 
257 1.14737 6.39329 -26.8339 -3.13131 -4.36861 -2.40772 -0.232751 -1.3327 0.460263 -3.53342 
258 2.92207 4.57035 -26.8408 -3.03457 -3.55339 -2.1697 -0.311355 -0.70889 0.285608 -3.53318 
259 1.0703 6.40787 -24.2724 -3.07732 -4.37971 -2.53064 -0.227051 -1.33646 0.405655 -3.53347 
260 4.68691 2.7307 -26.8393 -3.62835 -2.9517 -2.1787 -0.290973 0.0540575 0.899894 -3.53316 
261 2.51765 2.44437 -25.5612 -3.56388 -3.50102 -2.4955 -0.319089 -0.212915 0.38121 -3.52963 
262 2.4886 2.47533 -22.999 -3.55706 -3.50959 -2.63343 -0.341576 -0.232383 0.359156 -3.52968 
263 2.86781 4.60673 -24.2781 -3.00275 -3.55716 -2.30385 -0.330768 -0.727649 0.246062 -3.53323 
264 4.65511 2.788 -24.2766 -3.61921 -2.93444 -2.31257 -0.323903 0.0159877 0.876069 -3.53321 
265 0.686392 4.27136 -22.997 -3.61599 -4.69634 -2.92354 -0.183248 -0.906541 0.267299 -3.5336 
266 0.634677 4.28002 -20.4376 -3.57486 -4.71406 -3.0276 -0.176684 -0.909739 0.230195 -3.5336 
267 0.992903 6.42157 -21.7131 -3.02291 -4.37915 -2.62499 -0.218091 -1.33886 0.353618 -3.53353 
268 2.81285 4.64242 -21.7178 -2.96462 -3.55512 -2.41253 -0.346463 -0.743546 0.209476 -3.53327 
269 0.915201 6.43428 -19.1556 -2.97295 -4.37305 -2.69628 -0.206476 -1.34049 0.305856 -3.5336 
270 4.62241 2.84493 -21.7161 -3.59948 -2.91498 -2.42041 -0.353951 -0.0197462 0.854297 -3.53325 
271 2.45904 2.50594 -20.439 -3.5406 -3.51209 -2.74411 -0.360693 -0.249777 0.339028 -3.52972 
272 2.42894 2.53615 -17.8809 -3.51965 -3.5125 -2.83114 -0.376238 -0.264768 0.321376 -3.52975 
273 2.75722 4.67732 -19.1593 -2.9256 -3.55131 -2.4989 -0.357938 -0.756453 0.176817 -3.5333 
274 4.58877 2.90144 -19.1576 -3.57468 -2.89739 -2.50554 -0.380542 -0.0518631 0.835418 -3.53329 
275 0.582766 4.28803 -17.88 -3.5361 -4.72398 -3.10786 -0.167427 -0.91235 0.196502 -3.53361 
276 0.530684 4.29535 -15.3237 -3.50205 -4.72958 -3.16883 -0.156161 -0.914683 0.166396 -3.53362 
277 0.837225 6.44591 -16.5995 -2.92969 -4.36519 -2.74953 -0.192837 -1.34194 0.262816 -3.53366 
278 2.70094 4.7114 -16.6024 -2.88878 -3.54796 -2.56636 -0.365322 -0.766736 0.148111 -3.53332 
279 0.758999 6.45646 -14.0444 -2.89361 -4.35768 -2.78886 -0.17779 -1.34363 0.224223 -3.53371 
280 4.55418 2.95747 -16.6007 -3.54831 -2.88368 -2.57164 -0.40366 -0.0801216 0.819556 -3.53331 
281 2.39833 2.56594 -15.3243 -3.49744 -3.51304 -2.89839 -0.388422 -0.277524 0.306176 -3.52978 
282 2.36723 2.59529 -12.7688 -3.4758 -3.51478 -2.94948 -0.397666 -0.288452 0.293117 -3.5298 
283 2.64404 4.74465 -14.0466 -2.85564 -3.54615 -2.61822 -0.369089 -0.774968 0.122908 -3.53334 
284 4.51867 3.01301 -14.0449 -3.5224 -2.87456 -2.62214 -0.423595 -0.104878 0.806436 -3.53333 
285 0.478446 4.30198 -12.7685 -3.47349 -4.73299 -3.21445 -0.143491 -0.917031 0.139585 -3.53363 
286 0.426065 4.3079 -10.2141 -3.45021 -4.7354 -3.2479 -0.129926 -0.919594 0.115574 -3.53363 
287 0.680537 6.46591 -11.4902 -2.86412 -4.35152 -2.81751 -0.161877 -1.34582 0.189469 -3.53374 
288 2.58654 4.77707 -11.4918 -2.82659 -3.54623 -2.65742 -0.369854 -0.781729 0.100567 -3.53335 
289 0.601847 6.47429 -8.93654 -2.83995 -4.34709 -2.8379 -0.145524 -1.3485 0.157829 -3.53377 
290 4.48227 3.06806 -11.4901 -3.49797 -2.86995 -2.66006 -0.440773 -0.126749 0.795596 -3.53334 
291 2.33566 2.62422 -10.2141 -3.4556 -3.51806 -2.98751 -0.404472 -0.298015 0.281783 -3.52981 
292 2.30363 2.65272 -7.66007 -3.43706 -3.52282 -3.01504 -0.409346 -0.306605 0.271757 -3.52982 
293 2.52849 4.80868 -8.93767 -2.80132 -3.54815 -2.68639 -0.368237 -0.787475 0.0804327 -3.53335 
294 4.44502 3.12261 -8.93598 -3.47534 -2.86941 -2.6878 -0.455651 -0.146393 0.786518 -3.53335 
295 0.373543 4.31314 -7.6603 -3.43142 -4.73742 -3.27169 -0.115879 -0.922396 0.0938037 -3.53364 
296 0.320883 4.31769 -5.10689 -3.41603 -4.73927 -3.28764 -0.101661 -0.925235 0.0737064 -3.53364 
297 0.522934 6.48161 -6.38332 -2.81963 -4.34436 -2.85177 -0.129007 -1.35142 0.128578 -3.53379 
298 2.46991 4.83948 -6.38405 -2.77913 -3.55169 -2.70706 -0.364774 -0.792464 0.0619149 -3.53335 
299 0.443817 6.48787 -3.8304 -2.80189 -4.34314 -2.86026 -0.112426 -1.35406 0.101022 -3.5338 
300 4.40692 3.17667 -6.38236 -3.45443 -2.87235 -2.70725 -0.468641 -0.164381 0.778699 -3.53335 
301 2.27117 2.6808 -5.10649 -3.41998 -3.52883 -3.03397 -0.412732 -0.314482 0.262665 -3.52983 
302 2.23828 2.70846 -2.5532 -3.40404 -3.53591 -3.04564 -0.414943 -0.321758 0.254196 -3.52983 
303 2.41081 4.86949 -3.83076 -2.75926 -3.55664 -2.72078 -0.359831 -0.796755 0.0445276 -3.53336 
304 4.36803 3.23021 -3.82907 -3.43495 -2.87826 -2.71973 -0.480029 -0.181147 0.771693 -3.53336 
305 0.268096 4.32157 -2.55376 -3.40306 -4.74096 -3.29691 -0.0874535 -0.927697 0.0547229 -3.53364 
306 0.364532 6.4931 -1.27767 -2.78613 -4.34323 -2.864 -0.0957119 -1.35583 0.0745097 -3.53381 
307 2.35123 4.8987 -1.27769 -2.74119 -3.5629 -2.72839 -0.353547 -0.800259 0.0278826 -3.53336 
308 4.32835 3.28324 -1.27599 -3.41665 -2.8868 -2.72609 -0.489925 -0.196991 0.765126 -3.53336 
309 2.43623 7.09098 -0.00152849 -2.2162 -3.36008 -2.40119 -0.31726 -1.20575 -0.187877 -3.5329 
310 0.434479 8.66815 -0.0018002 -2.24768 -4.01603 -2.49638 -0.0994042 -1.74221 0.0832366 -3.53357 