ITEM: TIMESTEP
934
ITEM: NUMBER OF ATOMS
37664
ITEM: BOX BOUNDS ff ff ff
-100 100
-100 100
-156.15 156.15
ITEM: ATOMS id x y z v_peratom_sxx v_peratom_syy v_peratom_szz v_peratom_sxy v_peratom_sxz v_peratom_syz c_atomPE 
1 -0.00369491 -0.00219332 0.00105686 -5.17903 -5.17172 -9.53861 0.000289813 -0.0114459 -0.0278727 -3.51528 
2 -0.00399762 -0.00207686 2.55431 -5.17833 -5.17095 -9.53767 -0.000135365 -0.0136446 -0.0267037 -3.51527 
3 -0.00432794 -0.00190563 5.10762 -5.17314 -5.16605 -9.527 -0.000814506 -0.0139759 -0.0254657 -3.51532 
4 -0.00467209 -0.00168434 7.66113 -5.16262 -5.15643 -9.50511 -0.0017354 -0.011903 -0.024304 -3.51541 
5 -0.00500523 -0.00142755 10.215 -5.14581 -5.14123 -9.46987 -0.00280611 -0.00729697 -0.02322 -3.51557 
6 -0.00529467 -0.0011556 12.7694 -5.12165 -5.11929 -9.41865 -0.00387259 -0.000523579 -0.0220677 -3.5158 
7 -0.00550619 -0.000888882 15.3246 -5.08879 -5.08904 -9.34825 -0.00476752 0.00763011 -0.0206318 -3.51612 
8 -0.00561116 -0.000643014 17.8809 -5.04542 -5.04832 -9.25481 -0.00536288 0.0161582 -0.0187378 -3.51655 
9 -0.00559213 -0.000426607 20.4386 -4.98883 -4.99411 -9.13364 -0.00560113 0.0240743 -0.0163361 -3.5171 
10 -0.00544532 -0.000241759 22.998 -4.91514 -4.92228 -8.97928 -0.0054987 0.0306011 -0.0135303 -3.5178 
11 -0.00517994 -8.64073e-05 25.5597 -4.8191 -4.82744 -8.78611 -0.00512888 0.0352742 -0.0105559 -3.51866 
12 -0.00481496 4.27436e-05 28.124 -4.69431 -4.7032 -8.54999 -0.00459462 0.037961 -0.00772169 -3.51969 
13 -0.00437448 0.000147887 30.6914 -4.53481 -4.54368 -8.27136 -0.00400007 0.038815 -0.0053304 -3.52089 
14 -0.00388273 0.000229162 33.262 -4.33885 -4.34729 -7.95896 -0.00342776 0.0381942 -0.0035983 -3.5222 
15 -0.00335995 0.000285066 35.8358 -4.11417 -4.12191 -7.6303 -0.00292685 0.0365647 -0.00260424 -3.52347 
16 -0.00281982 0.000313357 38.4125 -3.87673 -3.88367 -7.30375 -0.00251296 0.0344013 -0.00229571 -3.52458 
17 -0.00226846 0.000311408 40.9917 -3.63812 -3.6442 -6.98578 -0.00217452 0.0321154 -0.00254912 -3.52548 
18 -0.00170195 0.000276038 43.5731 -3.39931 -3.40451 -6.66361 -0.00187695 0.0300977 -0.00322398 -3.5262 
19 -0.00110232 0.000203096 46.1569 -3.13509 -3.13929 -6.30048 -0.00154974 0.028723 -0.0041707 -3.52695 
20 -0.000440216 8.41885e-05 48.7435 -2.75188 -2.75413 -5.86107 -0.000860479 0.0278081 -0.00533349 -3.52782 
21 5.95933e-07 -4.11185e-08 51.3317 -1.92306 -1.9229 -4.91977 8.00989e-05 -0.00140415 0.000264642 -3.53203 
22 4.01304e-07 -1.42881e-06 53.9138 -0.851916 -0.851925 -8.91778 7.91439e-07 -2.9419e-05 -7.13979e-05 -3.48169 
23 8.71386e-07 -1.98378e-06 56.3885 1.68559 1.6856 1.87687 -1.6081e-05 2.45896e-05 -1.93038e-07 -2.55581 
24 -1.23087e-07 -1.12453e-06 -53.8876 -2.60693 -2.60696 -6.54959 -1.8557e-05 1.04051e-05 -3.26861e-05 -3.40183 
25 1.02659e-07 -1.55837e-06 -51.3239 -2.07915 -2.07933 -5.57944 -0.000271907 0.000666618 0.00146952 -3.52873 
26 -0.000169902 -0.000418187 -48.7462 -2.6945 -2.69185 -6.14756 0.00357471 -0.0107786 -0.0261202 -3.5264 
27 -0.000395673 -0.00100715 -46.1646 -3.02165 -3.01693 -6.34758 0.00632364 -0.00894401 -0.0244333 -3.52678 
28 -0.000561064 -0.00145626 -43.5822 -3.30332 -3.29677 -6.60798 0.00693669 -0.00556485 -0.0231839 -3.52635 
29 -0.000668658 -0.00179962 -41.0007 -3.55904 -3.55044 -6.89645 0.0068505 -0.00184113 -0.0223451 -3.52574 
30 -0.000738077 -0.00205651 -38.4209 -3.80965 -3.79901 -7.20539 0.0062882 0.00190394 -0.0217506 -3.52491 
31 -0.000791725 -0.00223865 -35.8434 -4.05637 -4.04392 -7.53074 0.00536706 0.0053349 -0.0213139 -3.52384 
32 -0.000852535 -0.00235623 -33.2686 -4.28975 -4.27599 -7.86133 0.00422286 0.00809063 -0.0210562 -3.52261 
33 -0.000940823 -0.0024208 -30.6969 -4.4967 -4.48227 -8.1795 0.00302623 0.00989346 -0.0210542 -3.52132 
34 -0.00107042 -0.00244524 -28.1283 -4.66867 -4.65427 -8.4681 0.00195078 0.0106491 -0.0213797 -3.5201 
35 -0.00124597 -0.00244226 -25.5629 -4.80467 -4.79092 -8.71656 0.0011262 0.0104793 -0.0220506 -3.51901 
36 -0.00146257 -0.00242283 -23.0002 -4.90878 -4.89612 -8.92194 0.000605842 0.00966183 -0.023015 -3.5181 
37 -0.00170799 -0.00239547 -20.4399 -4.98689 -4.97553 -9.08664 0.000363862 0.0085012 -0.0241736 -3.51736 
38 -0.00196684 -0.00236659 -17.8814 -5.04483 -5.03477 -9.21574 0.000320711 0.00719503 -0.0254158 -3.51678 
39 -0.00222514 -0.00234114 -15.3245 -5.0875 -5.0786 -9.31504 0.000382153 0.00575785 -0.0266398 -3.51632 
40 -0.00247401 -0.00232255 -12.7687 -5.11873 -5.11074 -9.39007 0.000472647 0.00403802 -0.0277471 -3.51597 
41 -0.00271141 -0.00231162 -10.2138 -5.14139 -5.13403 -9.44564 0.000549235 0.00181955 -0.0286266 -3.51572 
42 -0.00294195 -0.00230468 -7.65952 -5.15759 -5.15055 -9.48569 0.000593621 -0.0010363 -0.0291523 -3.51553 
43 -0.00317514 -0.00229246 -5.10573 -5.16876 -5.16179 -9.51329 0.000590933 -0.00446545 -0.0292133 -3.5154 
44 -0.00342263 -0.00226073 -2.55225 -5.17579 -5.16869 -9.53054 0.00050883 -0.00813331 -0.0287654 -3.51532 
45 0.0924205 2.15788 1.27692 -4.05617 -5.14029 -3.83749 -0.0511217 -0.452172 0.00368353 -3.52907 
46 0.0657448 2.15903 3.83011 -4.05003 -5.13945 -3.83168 -0.0397694 -0.452383 -0.00547479 -3.52908 
47 0.0390668 2.15988 6.38343 -4.0446 -5.13627 -3.81753 -0.028386 -0.45099 -0.0150527 -3.5291 
48 0.0124382 2.16043 8.93703 -4.04064 -5.13055 -3.79379 -0.0167429 -0.448047 -0.0253047 -3.52913 
49 -0.0140857 2.16065 11.4911 -4.03916 -5.1219 -3.75883 -0.00467615 -0.443948 -0.0364148 -3.52918 
50 -0.0404558 2.16053 14.0458 -4.0411 -5.10959 -3.71056 0.00779428 -0.439295 -0.048566 -3.52922 
51 -0.0666366 2.16004 16.6015 -4.04694 -5.0924 -3.64638 0.0204086 -0.434708 -0.0620093 -3.52928 
52 -0.0926101 2.15918 19.1583 -4.05635 -5.06838 -3.56294 0.032683 -0.430672 -0.0770796 -3.52935 
53 -0.118376 2.15796 21.7168 -4.06786 -5.03464 -3.45618 0.0439707 -0.427461 -0.0941181 -3.52943 
54 -0.143951 2.15639 24.2771 -4.07824 -4.98692 -3.32146 0.0535436 -0.425121 -0.113258 -3.52953 
55 -0.169358 2.15452 26.8399 -4.0817 -4.91924 -3.15443 0.0607019 -0.423509 -0.134021 -3.52967 
56 -0.194628 2.15241 29.4055 -4.06878 -4.82387 -2.9526 0.0649494 -0.422332 -0.154751 -3.52986 
57 -0.219783 2.15015 31.9742 -4.02615 -4.6927 -2.71807 0.0662788 -0.421189 -0.172311 -3.53012 
58 -0.244828 2.14783 34.5463 -3.93998 -4.5213 -2.45982 0.0654844 -0.419581 -0.183208 -3.53047 
59 -0.26974 2.1455 37.1216 -3.80468 -4.3151 -2.19208 0.0641207 -0.416924 -0.187156 -3.53087 
60 -0.294478 2.1431 39.6996 -3.62855 -4.08874 -1.92632 0.0637545 -0.412748 -0.189196 -3.53128 
61 -0.319018 2.14052 42.2798 -3.4235 -3.85299 -1.66285 0.0651007 -0.407147 -0.195422 -3.53164 
62 -0.343394 2.13769 44.8621 -3.19601 -3.60469 -1.39031 0.0674044 -0.400688 -0.212407 -3.53193 
63 -0.367768 2.13484 47.4464 -2.91615 -3.29372 -1.10607 0.0673334 -0.395798 -0.231871 -3.53223 
64 -0.392512 2.13371 50.032 -2.43434 -2.80059 -0.495123 0.0605497 -0.414679 -0.201191 -3.53323 
65 -0.418483 2.1304 52.6263 -1.76577 -2.00551 -0.561406 0.0455038 -0.30893 -0.730004 -3.52457 
66 -0.44812 2.14653 55.1778 6.9766 7.73843 2.43089 0.0330172 -0.597321 1.77022 -3.02528 
67 0.649859 2.05055 -55.162 1.38945 0.842391 -0.678355 -0.188252 -0.0991977 1.20762 -3.26036 
68 0.633027 2.08274 -52.6122 -1.11196 -2.21867 -0.457719 -0.374491 -0.489286 -0.161475 -3.53566 
69 0.607028 2.08678 -50.0319 -2.00278 -2.55486 -0.871552 -0.170234 -0.429465 0.0813384 -3.53399 
70 0.581328 2.08835 -47.4532 -2.63778 -3.07124 -1.2066 -0.127069 -0.403164 0.155265 -3.5329 
71 0.556531 2.09191 -44.8711 -3.05917 -3.44054 -1.36656 -0.106786 -0.397533 0.198745 -3.53225 
72 0.531919 2.09624 -42.2892 -3.35813 -3.72604 -1.5955 -0.0982966 -0.401273 0.210361 -3.53183 
73 0.507198 2.10078 -39.7085 -3.60184 -3.98202 -1.84617 -0.0971571 -0.406647 0.216318 -3.53141 
74 0.482272 2.10541 -37.1298 -3.80415 -4.22005 -2.10983 -0.101607 -0.411581 0.21984 -3.53097 
75 0.457137 2.11012 -34.5537 -3.96191 -4.43507 -2.37935 -0.109995 -0.415706 0.21859 -3.53055 
76 0.431825 2.11491 -31.9806 -4.07082 -4.61726 -2.64263 -0.119989 -0.419328 0.20986 -3.53018 
77 0.406362 2.11974 -29.4108 -4.1342 -4.7614 -2.88597 -0.129056 -0.42274 0.193642 -3.52988 
78 0.380763 2.1245 -26.8442 -4.16245 -4.86962 -3.09931 -0.135339 -0.425977 0.172521 -3.52965 
79 0.355034 2.12909 -24.2805 -4.16749 -4.94827 -3.27842 -0.138026 -0.428944 0.149562 -3.52948 
80 0.329183 2.13344 -21.7193 -4.15923 -5.00455 -3.42385 -0.137128 -0.431574 0.127024 -3.52936 
81 0.303221 2.13749 -19.1602 -4.14468 -5.04473 -3.53897 -0.133101 -0.433883 0.106159 -3.52927 
82 0.277161 2.14121 -16.6028 -4.12829 -5.07358 -3.62824 -0.126552 -0.435983 0.0874523 -3.52921 
83 0.251016 2.1446 -14.0466 -4.11261 -5.09453 -3.6962 -0.118071 -0.43805 0.0709386 -3.52916 
84 0.224789 2.14764 -11.4914 -4.09884 -5.10992 -3.74694 -0.108181 -0.440265 0.0564355 -3.52912 
85 0.198482 2.15033 -8.937 -4.08731 -5.12128 -3.78391 -0.0973288 -0.442746 0.0436791 -3.5291 
86 0.172092 2.15269 -6.3831 -4.07779 -5.12958 -3.80983 -0.0859053 -0.44547 0.0323752 -3.52908 
87 0.145614 2.15472 -3.82957 -4.06978 -5.13537 -3.82671 -0.0742461 -0.448228 0.0221971 -3.52907 
88 0.119053 2.15645 -1.27627 -4.06271 -5.13892 -3.83577 -0.0626069 -0.450629 0.0127709 -3.52906 
89 0.215388 4.32455 -0.000175978 -3.39656 -4.74659 -3.30054 -0.0738657 -0.932449 0.0380667 -3.53364 
90 0.285195 6.49698 1.27573 -2.77653 -4.34858 -2.86382 -0.0792111 -1.36022 0.0489712 -3.53381 
91 2.20515 2.73546 0.000421611 -3.3918 -3.5483 -3.05205 -0.416423 -0.329054 0.248113 -3.52983 
92 2.17133 2.76218 2.55357 -3.37635 -3.55682 -3.05085 -0.416383 -0.33533 0.240198 -3.52983 
93 2.29128 4.92679 1.27596 -2.72838 -3.57411 -2.73148 -0.346201 -0.805332 0.0123014 -3.53335 
94 4.28799 3.33543 1.2776 -3.40182 -2.90194 -2.72831 -0.498815 -0.212876 0.760414 -3.53335 
95 0.16226 4.327 2.55279 -3.38568 -4.74715 -3.29785 -0.0593456 -0.932734 0.0199229 -3.53365 
96 0.109131 4.3288 5.10582 -3.37732 -4.74732 -3.28887 -0.0444572 -0.931191 0.00144099 -3.53366 
97 0.205579 6.50006 3.82842 -2.76435 -4.35007 -2.85836 -0.0613109 -1.35886 0.0229838 -3.53382 
98 2.23072 4.9543 3.829 -2.71252 -3.5825 -2.72732 -0.336752 -0.806831 -0.00371469 -3.53335 
99 0.126057 6.50211 6.38123 -2.75745 -4.35283 -2.84804 -0.0426654 -1.35609 -0.00358645 -3.53383 
100 4.24672 3.3873 3.83068 -3.3847 -2.91483 -2.7231 -0.505294 -0.227561 0.753863 -3.53336 
101 2.13714 2.78844 5.1068 -3.36159 -3.56652 -3.04298 -0.41483 -0.340731 0.232352 -3.52983 
102 2.10265 2.81421 7.66027 -3.34819 -3.57771 -3.02759 -0.411246 -0.34539 0.224399 -3.52983 
103 2.16986 4.98096 6.3822 -2.69967 -3.59254 -2.71674 -0.32517 -0.807279 -0.0198327 -3.53336 
104 4.20477 3.43856 6.38393 -3.36926 -2.93047 -2.71166 -0.509425 -0.241763 0.74707 -3.53336 
105 0.0560819 4.32994 7.65905 -3.37306 -4.74729 -3.27294 -0.0289449 -0.92807 -0.0177779 -3.53368 
106 0.00319494 4.3304 10.2126 -3.37467 -4.74713 -3.24911 -0.0126954 -0.923979 -0.0381117 -3.53369 
107 0.0467328 6.50312 8.93431 -2.75789 -4.35721 -2.83239 -0.0233024 -1.35268 -0.0312743 -3.53383 
108 2.10877 5.00673 8.93567 -2.6913 -3.6044 -2.6989 -0.311135 -0.80714 -0.0365104 -3.53336 
109 -0.0323145 6.50306 11.4878 -2.76725 -4.36345 -2.81067 -0.00344675 -1.34946 -0.0606665 -3.53382 
110 4.16221 3.48918 8.93746 -3.35636 -2.94918 -2.69313 -0.510721 -0.255858 0.739856 -3.53336 
111 2.06791 2.83947 10.2141 -3.3371 -3.59058 -3.00337 -0.405125 -0.349657 0.216097 -3.52983 
112 2.03295 2.86418 12.7685 -3.32928 -3.60497 -2.96865 -0.396096 -0.354088 0.207096 -3.52982 
113 2.04751 5.03159 11.4896 -2.68882 -3.61804 -2.67267 -0.294495 -0.807103 -0.0543556 -3.53336 
114 4.11907 3.53911 11.4914 -3.3469 -2.97118 -2.66631 -0.508762 -0.270401 0.731957 -3.53336 
115 -0.0494655 4.33015 12.7668 -3.38364 -4.74677 -3.2161 0.00418204 -0.919664 -0.0599812 -3.5337 
116 -0.101858 4.32917 15.3217 -3.4009 -4.74572 -3.17214 0.0213537 -0.915785 -0.0838985 -3.53371 
117 -0.111037 6.50192 14.0419 -2.78643 -4.3716 -2.78175 0.0165267 -1.34716 -0.0924396 -3.5338 
118 1.98614 5.05551 14.0442 -2.69332 -3.63317 -2.63662 -0.27527 -0.807954 -0.0741259 -3.53336 
119 -0.189417 6.49966 16.5968 -2.81564 -4.38132 -2.74387 0.0361681 -1.34618 -0.127363 -3.53376 
120 4.07538 3.58832 14.046 -3.34167 -2.99647 -2.62961 -0.503221 -0.286105 0.722975 -3.53336 
121 1.99781 2.88833 15.3237 -3.32545 -3.6204 -2.92133 -0.38396 -0.35938 0.196911 -3.52981 
122 1.9625 2.91188 17.8799 -3.32583 -3.63589 -2.85884 -0.368667 -0.366271 0.184942 -3.52979 
123 1.92466 5.07845 16.5996 -2.7054 -3.64917 -2.58885 -0.25359 -0.810459 -0.0966885 -3.53335 
124 4.03116 3.63678 16.6015 -3.3411 -3.02483 -2.58105 -0.493857 -0.303797 0.712343 -3.53336 
125 -0.153964 4.32747 17.8776 -3.42664 -4.74303 -3.11477 0.0383193 -0.912755 -0.110464 -3.53371 
126 -0.205786 4.32504 20.4347 -3.46022 -4.73696 -3.04069 0.0544836 -0.91069 -0.140283 -3.5337 
127 -0.267458 6.49629 19.1527 -2.85452 -4.39179 -2.69449 0.0550263 -1.34657 -0.166248 -3.53371 
128 1.86308 5.10038 19.1561 -2.72506 -3.66505 -2.52691 -0.229632 -0.815273 -0.12294 -3.53334 
129 -0.345173 6.49181 21.7099 -2.9021 -4.40133 -2.63004 0.0726994 -1.34801 -0.209799 -3.53364 
130 3.98641 3.68447 19.158 -3.34515 -3.05567 -2.51817 -0.480483 -0.324341 0.699337 -3.53334 
131 1.92704 2.93483 20.4374 -3.32987 -3.64992 -2.77807 -0.350266 -0.375436 0.170533 -3.52976 
132 1.8914 2.95717 22.9967 -3.33593 -3.66002 -2.67541 -0.328909 -0.387363 0.153113 -3.52973 
133 1.80139 5.1213 21.7141 -2.75163 -3.67918 -2.44779 -0.203599 -0.822898 -0.153661 -3.53331 
134 3.94111 3.73134 21.716 -3.35311 -3.08787 -2.4381 -0.462981 -0.348531 0.683142 -3.53332 
135 -0.257342 4.3219 22.9936 -3.49987 -4.72467 -2.94571 0.0692092 -0.909435 -0.173764 -3.5337 
136 -0.308655 4.31809 25.5544 -3.5421 -4.70162 -2.82491 0.081838 -0.908661 -0.210722 -3.5337 
137 -0.422578 6.48626 24.2687 -2.9565 -4.40696 -2.54581 0.0888468 -1.3499 -0.258302 -3.53357 
138 1.73957 5.14119 24.2738 -2.78337 -3.689 -2.34795 -0.175782 -0.833623 -0.189241 -3.53328 
139 -0.499689 6.47971 26.8296 -3.01419 -4.40368 -2.43601 0.103142 -1.35149 -0.311082 -3.53351 
140 3.89528 3.77738 24.2756 -3.36321 -3.11933 -2.33758 -0.441409 -0.376892 0.663023 -3.53329 
141 1.8556 2.97892 25.558 -3.34064 -3.66236 -2.54704 -0.304934 -0.402134 0.132468 -3.52968 
142 1.81963 3.00011 28.1218 -3.338 -3.65093 -2.38963 -0.279089 -0.419038 0.10926 -3.52962 
143 1.67762 5.16011 26.8357 -2.81688 -3.69052 -2.22369 -0.146752 -0.847378 -0.229199 -3.53323 
144 3.84893 3.8226 26.8375 -3.37203 -3.14638 -2.21323 -0.416234 -0.409288 0.638676 -3.53324 
145 -0.359757 4.31371 28.1177 -3.58055 -4.66098 -2.67333 0.0917049 -0.907977 -0.249756 -3.53373 
146 -0.410675 4.3089 30.684 -3.60431 -4.59321 -2.48765 0.0982226 -0.906989 -0.287546 -3.53381 
147 -0.576519 6.47235 29.393 -3.06863 -4.38349 -2.29445 0.115156 -1.35209 -0.365696 -3.53348 
148 1.61556 5.17816 29.4002 -2.84588 -3.67758 -2.07187 -0.117681 -0.863356 -0.271409 -3.53318 
149 -0.65308 6.46443 31.9595 -3.10833 -4.33453 -2.11635 0.124229 -1.3512 -0.417182 -3.5335 
150 3.80214 3.86706 29.4019 -3.37347 -3.16272 -2.06194 -0.388685 -0.444239 0.610861 -3.53318 
151 1.78357 3.02085 30.6886 -3.31826 -3.61692 -2.20168 -0.252856 -0.43602 0.0857484 -3.52957 
152 1.74753 3.04133 33.2586 -3.26775 -3.54917 -1.98534 -0.228609 -0.449414 0.0661827 -3.52956 
153 1.55347 5.19556 31.9678 -2.85954 -3.64115 -1.89097 -0.0906712 -0.87932 -0.311235 -3.53312 
154 3.75508 3.91088 31.9693 -3.35731 -3.15832 -1.88188 -0.361061 -0.478084 0.582263 -3.53311 
155 -0.461421 4.30389 33.2536 -3.59721 -4.48693 -2.26901 0.101159 -0.905159 -0.318901 -3.53397 
156 -0.511968 4.2989 35.8266 -3.54119 -4.33319 -2.02611 0.101104 -0.901517 -0.339239 -3.53423 
157 -0.729366 6.45635 34.5294 -3.11538 -4.24126 -1.902 0.129555 -1.34827 -0.458441 -3.53363 
158 1.4915 5.21268 34.5386 -2.84142 -3.56918 -1.68273 -0.068653 -0.890949 -0.341613 -3.53309 
159 -0.805317 6.44849 37.103 -3.06825 -4.08899 -1.66157 0.130847 -1.34191 -0.483745 -3.53389 
160 3.70805 3.95433 34.54 -3.30816 -3.11917 -1.67423 -0.336546 -0.504894 0.557887 -3.53308 
161 1.71169 3.06174 35.832 -3.17224 -3.43763 -1.74785 -0.209007 -0.455244 0.0551445 -3.52962 
162 1.67619 3.08219 38.4085 -3.02595 -3.28049 -1.50002 -0.195156 -0.453017 0.0523207 -3.52978 
163 1.42988 5.2299 37.1129 -2.77231 -3.44888 -1.45408 -0.0542846 -0.892879 -0.356523 -3.53314 
164 3.66142 3.99768 37.1141 -3.20766 -3.03094 -1.44566 -0.317934 -0.519165 0.542941 -3.53313 
165 -0.56224 4.29398 38.4028 -3.42713 -4.13434 -1.77419 0.0997474 -0.894808 -0.350032 -3.53458 
166 -0.612148 4.28897 40.9816 -3.26246 -3.90644 -1.52568 0.0993342 -0.884427 -0.360225 -3.53492 
167 -0.880809 6.44093 39.6798 -2.95515 -3.87731 -1.41506 0.129379 -1.33033 -0.496127 -3.53425 
168 1.36885 5.24742 39.6902 -2.64153 -3.27557 -1.21688 -0.0479283 -0.883745 -0.359151 -3.53331 
169 -0.955735 6.4334 42.259 -2.78438 -3.62638 -1.1803 0.127885 -1.31343 -0.508309 -3.53461 
170 3.61542 4.04109 39.6913 -3.04546 -2.88859 -1.20858 -0.30562 -0.522023 0.536079 -3.5333 
171 1.64104 3.10262 40.9876 -2.83717 -3.08668 -1.24962 -0.185361 -0.447898 0.0497712 -3.53 
172 1.60614 3.12288 43.5687 -2.61583 -2.86435 -0.994355 -0.177089 -0.446366 0.0392588 -3.53027 
173 1.30846 5.26509 42.2698 -2.45547 -3.05847 -0.9813 -0.0467465 -0.869969 -0.363846 -3.53355 
174 3.57001 4.08447 42.2709 -2.82889 -2.7006 -0.974768 -0.297409 -0.523211 0.526481 -3.53354 
175 -0.661676 4.28369 43.5624 -3.05836 -3.66003 -1.28019 0.101046 -0.871174 -0.378155 -3.53523 
176 -0.710993 4.27811 46.1447 -2.82678 -3.3934 -1.018 0.104119 -0.857229 -0.409096 -3.53549 
177 -1.03015 6.42571 44.8395 -2.56307 -3.34341 -0.964228 0.12779 -1.29347 -0.525463 -3.53495 
178 1.24856 5.28277 44.851 -2.22138 -2.80255 -0.7489 -0.0489725 -0.859978 -0.382042 -3.53386 
179 -1.10443 6.41817 47.4204 -2.29845 -3.01767 -0.779254 0.130001 -1.27508 -0.53761 -3.53528 
180 3.52497 4.12776 44.852 -2.5633 -2.47452 -0.750004 -0.290644 -0.531591 0.505636 -3.53383 
181 1.57129 3.14295 46.1516 -2.36653 -2.61632 -0.716739 -0.169954 -0.45592 0.0126027 -3.53054 
182 1.53636 3.16327 48.7364 -2.09017 -2.36099 -0.346004 -0.182729 -0.4788 -0.025919 -3.53015 
183 1.1887 5.30046 47.4331 -1.94583 -2.5056 -0.518005 -0.0628629 -0.866553 -0.426578 -3.53411 
184 3.48005 4.171 47.4338 -2.24251 -2.22061 -0.541915 -0.28532 -0.557941 0.462274 -3.53403 
185 -0.760609 4.27328 48.7285 -2.60408 -3.07515 -0.672048 0.0974579 -0.849643 -0.41323 -3.53515 
186 -0.811621 4.26877 51.3169 -1.98848 -2.35115 0.310511 0.0838819 -0.841709 -0.653437 -3.53805 
187 -1.17889 6.41384 50.0002 -2.05966 -2.54263 -0.336539 0.0873595 -1.28002 -0.616726 -3.53572 
188 1.12775 5.31799 50.0156 -1.56908 -2.0788 -0.0206296 -0.110957 -0.945822 -0.595128 -3.53485 
189 -1.25707 6.40546 52.5877 -1.61234 -2.48689 0.643299 0.17576 -1.31617 -0.613142 -3.53282 
190 3.43505 4.21346 50.0156 -1.75824 -1.85272 -0.0377719 -0.309222 -0.668241 0.314306 -3.53491 
191 1.50027 3.18358 51.3264 -1.43157 -1.70132 0.658617 -0.172625 -0.548366 -0.133359 -3.53273 
192 1.46587 3.20964 53.9052 0.0267018 0.953992 -0.79587 0.566308 -0.560984 0.138971 -3.37565 
193 1.06597 5.33731 52.6041 -1.24921 -1.89855 0.441466 -0.236972 -0.801325 -0.410822 -3.52779 
194 3.38747 4.26008 52.6041 -1.41016 -1.71357 0.389816 -0.390656 -0.639443 0.587324 -3.52746 
195 -0.866323 4.2769 53.8949 -0.0508686 -0.20614 -1.18049 0.0793785 -1.26166 1.02744 -3.38132 
196 1.3298 4.1174 -56.3442 5.06942 2.90559 1.60242 -1.25473 -0.273892 0.110264 -2.79034 
197 -1.33605 6.40133 55.1665 4.18004 2.79746 1.28995 0.319921 -1.5232 0.197885 -3.26107 
198 1.00488 5.36129 55.1754 5.64209 6.63186 2.70775 0.369867 -0.636458 -0.032611 -3.15047 
199 1.98371 6.26223 -55.1334 6.93989 9.11553 2.92917 0.134186 -0.847908 -0.525659 -3.02309 
200 3.34328 4.30996 55.1754 5.53065 7.35768 2.86912 0.118702 -0.278622 0.562639 -3.15115 
201 2.87095 2.09325 -56.362 4.04253 6.0065 1.88101 -3.16453 0.252646 0.341792 -2.79939 
202 2.84551 2.1252 -53.8874 0.165022 0.763304 -3.02646 -0.982108 -0.732815 -0.162365 -3.51266 
203 3.53831 4.21674 -55.1525 6.03166 6.27392 1.75936 0.302437 -1.2195 -0.0444714 -3.1433 
204 5.07312 2.13635 -55.1525 6.04997 7.03887 2.00315 0.446064 -0.528119 0.0805381 -3.14511 
205 1.29262 4.16451 -53.8815 0.86127 -0.348228 -3.67504 -0.408874 -0.573881 0.839001 -3.51412 
206 1.24176 4.17585 -51.3147 -1.28679 -1.91098 -0.373767 -0.214931 -0.880568 0.220148 -3.53903 
207 1.90264 6.26187 -52.5941 -0.91783 -1.4568 -0.573007 -0.184178 -1.16803 0.820002 -3.52792 
208 3.4607 4.22944 -52.6036 -0.74888 -0.925833 0.0954396 -0.677535 -0.49607 0.191365 -3.53019 
209 1.82403 6.27282 -50.0101 -1.64263 -2.32544 -0.262374 -0.200431 -1.28163 0.432938 -3.53673 
210 5.01221 2.17771 -52.6036 -1.34185 -0.34857 0.054615 -0.502576 0.0191981 0.991504 -3.52952 
211 2.80522 2.14769 -51.32 -1.10368 -0.946861 -0.112698 -0.278081 -0.333016 0.261783 -3.53414 
212 2.77226 2.17461 -48.7405 -1.96858 -1.83665 -0.545562 -0.291623 -0.223604 0.337935 -3.53087 
213 3.40036 4.25787 -50.02 -1.43137 -1.65385 -0.138956 -0.408381 -0.70879 0.286313 -3.53497 
214 4.971 2.23184 -50.02 -1.84413 -1.27395 -0.113704 -0.296371 0.0209246 0.835939 -3.535 
215 1.18965 4.18042 -48.7355 -2.17796 -2.75564 -0.78582 -0.18041 -0.8501 0.284004 -3.5364 
216 1.13972 4.1865 -46.154 -2.63704 -3.19128 -0.973903 -0.165213 -0.833657 0.402018 -3.53604 
217 1.74858 6.27864 -47.4305 -2.10032 -2.83291 -0.673414 -0.213725 -1.2412 0.546243 -3.53588 
218 3.345 4.28749 -47.4411 -1.89803 -2.2079 -0.561523 -0.301227 -0.639313 0.335867 -3.53414 
219 1.67464 6.29042 -44.8494 -2.46969 -3.19107 -0.861847 -0.201071 -1.24474 0.604557 -3.53533 
220 4.9348 2.28445 -47.4403 -2.32174 -1.78825 -0.540781 -0.21237 0.105811 0.864906 -3.53419 
221 2.74198 2.20189 -46.1593 -2.36445 -2.26788 -0.738799 -0.232012 -0.161423 0.392583 -3.53074 
222 2.71359 2.23052 -43.5775 -2.67677 -2.59076 -0.950282 -0.216192 -0.15002 0.412728 -3.53037 
223 3.29148 4.31967 -44.8604 -2.23382 -2.57311 -0.716809 -0.260876 -0.625254 0.371165 -3.53392 
224 4.90189 2.3375 -44.8595 -2.65697 -2.14343 -0.722034 -0.178344 0.143255 0.896095 -3.53392 
225 1.09054 4.19502 -43.572 -2.97565 -3.51158 -1.20189 -0.153018 -0.841547 0.427248 -3.53553 
226 1.04128 4.20425 -40.9909 -3.23531 -3.78682 -1.44315 -0.151075 -0.854548 0.433605 -3.53509 
227 1.6009 6.3039 -42.2683 -2.75193 -3.49755 -1.08901 -0.200703 -1.26248 0.619965 -3.53483 
228 3.23888 4.3533 -42.2794 -2.50724 -2.86964 -0.916851 -0.24406 -0.627602 0.388694 -3.5336 
229 1.5267 6.31806 -39.6884 -2.96254 -3.7648 -1.33293 -0.207825 -1.28154 0.623415 -3.53438 
230 4.8705 2.39143 -42.2785 -2.94024 -2.42588 -0.927739 -0.167817 0.154915 0.921033 -3.5336 
231 2.68575 2.25987 -40.9964 -2.93272 -2.85218 -1.1807 -0.213764 -0.148028 0.426484 -3.53006 
232 2.658 2.28981 -38.4167 -3.14623 -3.0671 -1.42316 -0.218797 -0.147216 0.437815 -3.52981 
233 3.18652 4.38799 -39.6994 -2.72448 -3.1097 -1.14082 -0.238829 -0.632492 0.398948 -3.53333 
234 4.8397 2.44632 -39.6985 -3.17708 -2.64387 -1.15163 -0.16859 0.15964 0.942527 -3.53333 
235 0.991629 4.21374 -38.4114 -3.43472 -4.03129 -1.69433 -0.156352 -0.866851 0.434518 -3.53468 
236 0.941553 4.22345 -35.8343 -3.57563 -4.24173 -1.95014 -0.165991 -0.876699 0.429023 -3.53431 
237 1.45186 6.33271 -37.1108 -3.10468 -3.98844 -1.58521 -0.218706 -1.29729 0.618151 -3.53398 
238 3.13414 4.42361 -37.1215 -2.88593 -3.29338 -1.37493 -0.242339 -0.638796 0.401057 -3.53314 
239 1.37647 6.34787 -34.5362 -3.17936 -4.15744 -1.83221 -0.229094 -1.3093 0.599188 -3.53367 
240 4.80919 2.50218 -37.1205 -3.36457 -2.80035 -1.38443 -0.178937 0.159296 0.956246 -3.53314 
241 2.63025 2.3203 -35.8394 -3.31631 -3.23596 -1.66989 -0.230726 -0.149023 0.443488 -3.52963 
242 2.60247 2.35126 -33.2649 -3.43843 -3.35667 -1.91053 -0.249335 -0.15681 0.439652 -3.52955 
243 3.08166 4.46006 -34.5463 -2.9895 -3.41941 -1.60552 -0.253908 -0.649806 0.389782 -3.53306 
244 4.77889 2.55888 -34.5453 -3.49747 -2.89737 -1.61408 -0.198994 0.148911 0.957168 -3.53306 
245 0.891119 4.23337 -33.2603 -3.65752 -4.40925 -2.19919 -0.176626 -0.884364 0.41303 -3.53401 
246 0.840402 4.24341 -30.6897 -3.68793 -4.53109 -2.42789 -0.185253 -0.8907 0.385472 -3.5338 
247 1.30062 6.36341 -31.9652 -3.19668 -4.26983 -2.05769 -0.235944 -1.31866 0.564178 -3.53349 
248 3.02899 4.49704 -31.9745 -3.04001 -3.49505 -1.81992 -0.271853 -0.666514 0.363956 -3.53307 
249 1.22438 6.37898 -29.3977 -3.17457 -4.33536 -2.25061 -0.238231 -1.32598 0.516663 -3.53342 
250 4.74866 2.61615 -31.9733 -3.57826 -2.94439 -1.82836 -0.227204 0.126053 0.94519 -3.53306 
251 2.57459 2.38252 -30.6938 -3.51406 -3.43349 -2.1338 -0.272843 -0.171239 0.426087 -3.52954 
252 2.54647 2.41384 -28.1258 -3.55177 -3.47697 -2.33129 -0.298325 -0.189953 0.406128 -3.52957 
253 2.97596 4.53415 -29.4059 -3.04995 -3.53437 -2.00984 -0.293187 -0.686537 0.328063 -3.53312 
254 4.71819 2.67365 -29.4046 -3.61741 -2.95676 -2.01866 -0.260195 0.0935039 0.924771 -3.5331 
255 0.789441 4.25337 -28.1224 -3.68159 -4.61318 -2.62661 -0.190096 -0.896173 0.349503 -3.53368 
256 0.738249 4.26303 -25.5582 -3.65368 -4.66524 -2.79177 -0.19062 -0.900843 0.309749 -3.53362 
257 1.14777 6.39419 -26.8335 -3.13056 -4.36779 -2.40766 -0.23614 -1.33136 0.462753 -3.53342 
258 2.9224 4.571 -26.8405 -3.03352 -3.55111 -2.17193 -0.314676 -0.706873 0.288084 -3.53318 
259 1.07081 6.40872 -24.272 -3.07789 -4.37952 -2.53111 -0.230183 -1.33504 0.407875 -3.53347 
260 4.68719 2.73112 -26.8391 -3.62734 -2.94915 -2.18097 -0.29434 0.0561746 0.900903 -3.53316 
261 2.51795 2.44502 -25.561 -3.56259 -3.49871 -2.49904 -0.323045 -0.209984 0.383735 -3.52962 
262 2.48896 2.47592 -22.9988 -3.55646 -3.50811 -2.63699 -0.34518 -0.229191 0.361751 -3.52967 
263 2.8682 4.60731 -24.2778 -3.00258 -3.55553 -2.3063 -0.3338 -0.725455 0.248535 -3.53323 
264 4.65543 2.78834 -24.2763 -3.61881 -2.93252 -2.31501 -0.326986 0.0183615 0.877148 -3.53321 
265 0.68683 4.27221 -22.9967 -3.61599 -4.69676 -2.9246 -0.187081 -0.904731 0.270035 -3.5336 
266 0.635193 4.28079 -20.4373 -3.57629 -4.71525 -3.02886 -0.180099 -0.907988 0.232688 -3.5336 
267 0.993517 6.42235 -21.7127 -3.02506 -4.37974 -2.6259 -0.22094 -1.33755 0.355542 -3.53353 
268 2.81333 4.64292 -21.7174 -2.96556 -3.55433 -2.4151 -0.34913 -0.741352 0.211907 -3.53327 
269 0.915904 6.43496 -19.1552 -2.97681 -4.37455 -2.6975 -0.20903 -1.33954 0.307463 -3.53359 
270 4.62279 2.8452 -21.7158 -3.59985 -2.91393 -2.42293 -0.356671 -0.0172198 0.855488 -3.53325 
271 2.45945 2.50645 -20.4388 -3.54084 -3.51162 -2.74756 -0.363859 -0.246483 0.341676 -3.52971 
272 2.4294 2.53657 -17.8807 -3.52081 -3.51316 -2.83436 -0.378912 -0.261564 0.324041 -3.52975 
273 2.75777 4.67773 -19.159 -2.92777 -3.5515 -2.50146 -0.36019 -0.754465 0.179143 -3.5333 
274 4.5892 2.90162 -19.1573 -3.57592 -2.89742 -2.50806 -0.382847 -0.0493276 0.836746 -3.53328 
275 0.583351 4.28871 -17.8797 -3.53905 -4.72598 -3.10918 -0.170404 -0.910879 0.198746 -3.5336 
276 0.531316 4.29592 -15.3234 -3.50646 -4.7324 -3.17009 -0.158701 -0.913712 0.168398 -3.53361 
277 0.837993 6.44649 -16.599 -2.93521 -4.36767 -2.75092 -0.195101 -1.34155 0.264099 -3.53365 
278 2.70153 4.71172 -16.602 -2.89223 -3.54923 -2.56882 -0.367141 -0.765164 0.150265 -3.53332 
279 0.759797 6.45691 -14.0439 -2.90058 -4.36111 -2.7903 -0.179777 -1.34401 0.225197 -3.53369 
280 4.55465 2.95757 -16.6004 -3.55046 -2.88489 -2.57407 -0.405534 -0.0777412 0.821026 -3.53331 
281 2.39882 2.56626 -15.324 -3.49953 -3.51487 -2.90128 -0.390581 -0.274612 0.308808 -3.52977 
282 2.36774 2.59552 -12.7685 -3.47872 -3.5177 -2.95198 -0.399323 -0.286016 0.295667 -3.52979 
283 2.64466 4.74487 -14.0462 -2.86027 -3.54847 -2.6205 -0.370489 -0.773996 0.124823 -3.53333 
284 4.51916 3.01303 -14.0446 -3.5254 -2.87695 -2.62444 -0.425052 -0.102815 0.808035 -3.53332 
285 0.479097 4.30242 -12.7682 -3.47914 -4.73655 -3.21555 -0.145613 -0.916748 0.141376 -3.53362 
286 0.426698 4.30821 -10.2137 -3.45674 -4.73958 -3.24879 -0.131663 -0.920127 0.117205 -3.53362 
287 0.681321 6.46623 -11.4897 -2.87212 -4.35581 -2.81888 -0.163606 -1.34708 0.190173 -3.53373 
288 2.58716 4.77719 -11.4914 -2.83216 -3.54948 -2.65947 -0.370881 -0.781489 0.102198 -3.53334 
289 0.602567 6.47447 -8.93596 -2.84841 -4.35201 -2.83912 -0.147014 -1.35068 0.158328 -3.53375 
290 4.48277 3.06801 -11.4897 -3.50166 -2.87342 -2.66219 -0.441863 -0.12514 0.797298 -3.53333 
291 2.33616 2.62435 -10.2138 -3.45916 -3.52189 -2.98964 -0.405676 -0.296196 0.284214 -3.5298 
292 2.30409 2.65275 -7.65973 -3.44098 -3.52729 -3.01681 -0.410178 -0.305479 0.274052 -3.52981 
293 2.52906 4.8087 -8.9372 -2.80745 -3.55211 -2.68821 -0.368966 -0.788021 0.0817625 -3.53334 
294 4.44548 3.1225 -8.93556 -3.47946 -2.87372 -2.68977 -0.456454 -0.14533 0.78829 -3.53334 
295 0.374118 4.31331 -7.65985 -3.43832 -4.742 -3.27236 -0.117274 -0.923787 0.0953454 -3.53362 
296 0.32136 4.31772 -5.10638 -3.42273 -4.74399 -3.28813 -0.102756 -0.927422 0.0752415 -3.53363 
297 0.523541 6.48165 -6.38269 -2.82788 -4.34962 -2.8528 -0.13027 -1.35443 0.128954 -3.53377 
298 2.4704 4.83941 -6.38352 -2.78536 -3.55607 -2.70866 -0.365295 -0.793763 0.062962 -3.53334 
299 0.444267 6.48778 -3.82972 -2.80924 -4.34838 -2.86111 -0.113465 -1.35769 0.101365 -3.53378 
300 4.40733 3.1765 -6.3819 -3.45866 -2.87717 -2.70907 -0.469254 -0.163894 0.780503 -3.53334 
301 2.27156 2.68074 -5.1061 -3.42393 -3.53361 -3.03548 -0.413294 -0.314045 0.264831 -3.52982 
302 2.23857 2.70831 -2.55276 -3.40764 -3.54062 -3.04698 -0.415342 -0.321927 0.256262 -3.52982 
303 2.41118 4.86933 -3.83019 -2.76509 -3.56108 -2.72223 -0.360238 -0.798677 0.0453465 -3.53334 
304 4.36834 3.23 -3.82857 -3.43892 -2.88319 -2.72145 -0.480557 -0.181197 0.773491 -3.53335 
305 0.268439 4.32146 -2.5532 -3.40898 -4.74554 -3.29733 -0.0882832 -0.930512 0.0563329 -3.53363 
306 0.364792 6.49289 -1.27695 -2.79197 -4.34806 -2.86471 -0.0965159 -1.35979 0.0749089 -3.5338 
307 2.35146 4.89846 -1.27707 -2.74611 -3.56706 -2.72973 -0.353919 -0.802595 0.0285587 -3.53335 
308 4.32855 3.28299 -1.27545 -3.41999 -2.89146 -2.72774 -0.490456 -0.197472 0.766888 -3.53335 
309 2.43635 7.09067 -0.000767027 -2.22107 -3.36367 -2.40269 -0.317725 -1.20933 -0.188524 -3.53289 
310 0.434612 8.66783 -0.000972282 -2.25221 -4.0206 -2.49706 -0.100139 -1.74673 0.0828252 -3.53355 