ITEM: TIMESTEP
934
ITEM: NUMBER OF ATOMS
37664
ITEM: BOX BOUNDS ff ff ff
-100 100
-100 100
-156.15 156.15
ITEM: ATOMS id x y z v_peratom_sxx v_peratom_syy v_peratom_szz v_peratom_sxy v_peratom_sxz v_peratom_syz c_atomPE 
1 -0.0036956 -0.00218901 0.00106161 -5.17905 -5.17177 -9.53871 0.000236151 -0.0114411 -0.0280435 -3.51527 
2 -0.0039953 -0.00207409 2.55431 -5.17832 -5.17098 -9.53771 -0.000180151 -0.0135732 -0.0268674 -3.51527 
3 -0.00432169 -0.00190497 5.10762 -5.17312 -5.16608 -9.527 -0.000839317 -0.0138775 -0.0256004 -3.51532 
4 -0.00466119 -0.00168597 7.66114 -5.16264 -5.15646 -9.50508 -0.00173276 -0.0118292 -0.0243935 -3.51541 
5 -0.00498952 -0.00143121 10.215 -5.1459 -5.14126 -9.46985 -0.00277509 -0.00729539 -0.0232601 -3.51557 
6 -0.00527476 -0.00116067 12.7694 -5.12181 -5.11933 -9.41866 -0.00381871 -0.000622944 -0.0220659 -3.5158 
7 -0.00548329 -0.000894627 15.3246 -5.08903 -5.0891 -9.34831 -0.00469995 0.00742527 -0.0206021 -3.51612 
8 -0.0055868 -0.000648762 17.8809 -5.04571 -5.04839 -9.25492 -0.00529104 0.0158637 -0.018695 -3.51655 
9 -0.00556788 -0.000431853 20.4386 -4.98915 -4.99419 -9.1338 -0.00553261 0.0237182 -0.0162915 -3.5171 
10 -0.00542256 -0.000246186 22.998 -4.91548 -4.92237 -8.97948 -0.00543863 0.0302162 -0.0134914 -3.5178 
11 -0.00515971 -8.98638e-05 25.5597 -4.81942 -4.82752 -8.78633 -0.00508013 0.0348923 -0.0105271 -3.51866 
12 -0.0047979 4.02623e-05 28.124 -4.69461 -4.70328 -8.55021 -0.00455816 0.037609 -0.00770484 -3.51969 
13 -0.00436084 0.00014627 30.6914 -4.53506 -4.54375 -8.27157 -0.00397522 0.0385122 -0.00532508 -3.52089 
14 -0.00387244 0.000228222 33.262 -4.33905 -4.34735 -7.95915 -0.00341257 0.0379507 -0.00360209 -3.5222 
15 -0.00335264 0.000284585 35.8358 -4.11432 -4.12197 -7.63046 -0.00291868 0.0363815 -0.00261345 -3.52347 
16 -0.002815 0.000313139 38.4125 -3.87684 -3.88371 -7.30388 -0.00250913 0.0342726 -0.00230646 -3.52458 
17 -0.00226556 0.000311306 40.9917 -3.6382 -3.64423 -6.98587 -0.00217286 0.0320317 -0.00255823 -3.52548 
18 -0.00170042 0.000275974 43.5731 -3.39936 -3.40453 -6.66368 -0.00187603 0.0300484 -0.00322947 -3.5262 
19 -0.00110166 0.000203045 46.1569 -3.13513 -3.13931 -6.30053 -0.00154891 0.0286985 -0.00417196 -3.52695 
20 -0.00044004 8.41643e-05 48.7435 -2.7519 -2.75415 -5.8611 -0.000859867 0.027799 -0.00533154 -3.52782 
21 5.95933e-07 -4.11185e-08 51.3317 -1.92308 -1.92292 -4.9198 7.96665e-05 -0.00140513 0.000264353 -3.53203 
22 4.01304e-07 -1.42881e-06 53.9138 -0.851901 -0.85191 -8.91777 8.83738e-07 -2.84507e-05 -7.13444e-05 -3.48169 
23 8.71386e-07 -1.98378e-06 56.3885 1.68559 1.6856 1.87688 -1.53779e-05 2.38649e-05 -3.08314e-07 -2.55581 
24 -1.23087e-07 -1.12453e-06 -53.8876 -2.60696 -2.60698 -6.54961 -1.84146e-05 1.06723e-05 -3.2403e-05 -3.40183 
25 1.02659e-07 -1.55837e-06 -51.3239 -2.07912 -2.07929 -5.5793 -0.000270701 0.000692038 0.00146454 -3.52873 
26 -0.000177121 -0.000417246 -48.7462 -2.69412 -2.69159 -6.14711 0.00356748 -0.0112297 -0.0260597 -3.5264 
27 -0.000412514 -0.0010054 -46.1646 -3.02119 -3.01666 -6.34706 0.00631486 -0.00942145 -0.0243906 -3.52678 
28 -0.000585445 -0.00145449 -43.5822 -3.30282 -3.29651 -6.60743 0.00694422 -0.00614303 -0.023169 -3.52635 
29 -0.000699843 -0.00179859 -41.0007 -3.55848 -3.55017 -6.89587 0.00688633 -0.00254541 -0.022363 -3.52575 
30 -0.000775474 -0.00205683 -38.4209 -3.80903 -3.79872 -7.20481 0.00636129 0.00107759 -0.0218058 -3.52491 
31 -0.000834333 -0.00224068 -35.8434 -4.05573 -4.04363 -7.53019 0.00548143 0.00441502 -0.0214065 -3.52385 
32 -0.000898759 -0.00236002 -33.2685 -4.28912 -4.2757 -7.86083 0.00437519 0.00712453 -0.0211791 -3.52261 
33 -0.00098857 -0.00242599 -30.6968 -4.49612 -4.48201 -8.17909 0.00320549 0.00893685 -0.021193 -3.52132 
34 -0.00111737 -0.00245117 -28.1283 -4.66817 -4.65405 -8.46779 0.00214068 0.00975361 -0.0215168 -3.5201 
35 -0.00128987 -0.00244812 -25.5629 -4.80428 -4.79076 -8.71638 0.0013093 0.00968277 -0.0221709 -3.51901 
36 -0.00150157 -0.00242784 -23.0002 -4.90851 -4.89601 -8.92186 0.000767307 0.00898281 -0.0231097 -3.5181 
37 -0.00174087 -0.00239906 -20.4398 -4.98675 -4.97548 -9.08666 0.000493693 0.00793839 -0.0242418 -3.51736 
38 -0.00199315 -0.00236843 -17.8814 -5.04479 -5.03478 -9.21584 0.000414452 0.00673133 -0.0254644 -3.51677 
39 -0.0022452 -0.00234115 -15.3244 -5.08754 -5.07864 -9.31519 0.000440212 0.00536917 -0.026681 -3.51632 
40 -0.00248868 -0.00232085 -12.7687 -5.11882 -5.11081 -9.39025 0.000498628 0.00370431 -0.0277956 -3.51597 
41 -0.00272184 -0.00230843 -10.2138 -5.14151 -5.13411 -9.44584 0.000548019 0.00153306 -0.0286954 -3.51571 
42 -0.00294926 -0.00230034 -7.65951 -5.1577 -5.15064 -9.48589 0.000570154 -0.00126916 -0.0292506 -3.51553 
43 -0.00318012 -0.00228744 -5.10572 -5.16885 -5.16187 -9.51347 0.000550287 -0.00462929 -0.0293438 -3.5154 
44 -0.00342559 -0.00225567 -2.55224 -5.17584 -5.16876 -9.53069 0.000457315 -0.00821384 -0.0289229 -3.51532 
45 0.0924198 2.15789 1.27692 -4.05603 -5.14033 -3.8375 -0.0511509 -0.452022 0.00356196 -3.52907 
46 0.0657506 2.15903 3.83011 -4.05003 -5.13949 -3.83168 -0.0397377 -0.452241 -0.00557401 -3.52908 
47 0.0390795 2.15988 6.38343 -4.04479 -5.13633 -3.81754 -0.0283026 -0.45089 -0.0151203 -3.5291 
48 0.0124573 2.16043 8.93703 -4.04101 -5.13062 -3.79382 -0.0166294 -0.448013 -0.0253403 -3.52913 
49 -0.0140617 2.16065 11.4911 -4.03967 -5.12196 -3.75889 -0.00455792 -0.443985 -0.0364258 -3.52917 
50 -0.0404289 2.16052 14.0458 -4.0417 -5.10964 -3.71065 0.00789633 -0.439392 -0.0485629 -3.52922 
51 -0.0666088 2.16003 16.6015 -4.04756 -5.09244 -3.64649 0.0204825 -0.434848 -0.0620017 -3.52928 
52 -0.0925833 2.15917 19.1584 -4.05695 -5.06843 -3.56307 0.0327254 -0.430838 -0.077074 -3.52935 
53 -0.118352 2.15795 21.7168 -4.0684 -5.03468 -3.45631 0.043984 -0.427635 -0.0941184 -3.52943 
54 -0.14393 2.15639 24.2772 -4.0787 -4.98696 -3.32161 0.0535339 -0.42529 -0.113266 -3.52953 
55 -0.169341 2.15452 26.8399 -4.08206 -4.91927 -3.15456 0.0606764 -0.423659 -0.134036 -3.52967 
56 -0.194615 2.15241 29.4055 -4.06904 -4.8239 -2.95272 0.064916 -0.422455 -0.154772 -3.52986 
57 -0.219773 2.15014 31.9742 -4.02633 -4.69272 -2.71818 0.0662446 -0.421282 -0.172336 -3.53012 
58 -0.244821 2.14783 34.5463 -3.94009 -4.52133 -2.45991 0.0654546 -0.419646 -0.183232 -3.53047 
59 -0.269736 2.1455 37.1216 -3.80474 -4.31511 -2.19215 0.0640983 -0.416967 -0.187179 -3.53087 
60 -0.294476 2.1431 39.6996 -3.62858 -4.08876 -1.92638 0.0637403 -0.412773 -0.189214 -3.53128 
61 -0.319016 2.14052 42.2798 -3.42351 -3.853 -1.6629 0.0650937 -0.407161 -0.195434 -3.53164 
62 -0.343394 2.13769 44.8621 -3.19601 -3.6047 -1.39034 0.0674025 -0.400694 -0.212415 -3.53193 
63 -0.367768 2.13484 47.4464 -2.91616 -3.29373 -1.1061 0.0673335 -0.395799 -0.231876 -3.53223 
64 -0.392512 2.13371 50.032 -2.43434 -2.80059 -0.495147 0.0605482 -0.414678 -0.201194 -3.53323 
65 -0.418483 2.1304 52.6263 -1.76577 -2.00552 -0.56141 0.0455083 -0.308932 -0.729992 -3.52457 
66 -0.44812 2.14653 55.1778 6.97659 7.73843 2.4309 0.0330147 -0.597322 1.77022 -3.02528 
67 0.649859 2.05055 -55.162 1.38944 0.842382 -0.678379 -0.188253 -0.0991979 1.20761 -3.26036 
68 0.633027 2.08274 -52.6122 -1.11195 -2.21867 -0.457719 -0.374491 -0.489286 -0.16147 -3.53566 
69 0.607028 2.08678 -50.0319 -2.00273 -2.55471 -0.871367 -0.170293 -0.429532 0.0813273 -3.53398 
70 0.581319 2.08835 -47.4532 -2.63751 -3.0711 -1.20628 -0.127041 -0.403307 0.155217 -3.5329 
71 0.556515 2.09191 -44.8711 -3.05882 -3.44041 -1.36623 -0.106746 -0.397679 0.198675 -3.53225 
72 0.531897 2.09624 -42.2892 -3.35771 -3.72591 -1.59517 -0.0982389 -0.401442 0.210259 -3.53183 
73 0.507171 2.10078 -39.7085 -3.60134 -3.98188 -1.84583 -0.0970784 -0.406842 0.216185 -3.53141 
74 0.482239 2.1054 -37.1298 -3.80357 -4.21991 -2.1095 -0.101508 -0.4118 0.219682 -3.53098 
75 0.457101 2.11011 -34.5537 -3.96125 -4.43492 -2.37903 -0.109881 -0.415938 0.218419 -3.53055 
76 0.431785 2.11491 -31.9806 -4.07011 -4.61711 -2.64234 -0.119873 -0.419562 0.20969 -3.53018 
77 0.406321 2.11973 -29.4108 -4.13348 -4.76126 -2.88572 -0.128951 -0.422964 0.193485 -3.52988 
78 0.380723 2.12449 -26.8442 -4.16175 -4.86949 -3.09912 -0.135259 -0.426181 0.172388 -3.52965 
79 0.354996 2.12908 -24.2805 -4.16685 -4.94817 -3.27828 -0.137982 -0.429125 0.149456 -3.52948 
80 0.329148 2.13343 -21.7193 -4.15867 -5.00449 -3.42376 -0.137126 -0.431731 0.126945 -3.52936 
81 0.30319 2.13748 -19.1602 -4.14422 -5.04469 -3.53893 -0.133143 -0.434019 0.106099 -3.52927 
82 0.277135 2.14121 -16.6027 -4.12792 -5.07357 -3.62824 -0.126633 -0.436099 0.0874013 -3.52921 
83 0.250993 2.1446 -14.0466 -4.11231 -5.09454 -3.69623 -0.118186 -0.438145 0.0708856 -3.52916 
84 0.22477 2.14764 -11.4914 -4.09858 -5.10994 -3.74699 -0.108319 -0.440333 0.0563707 -3.52912 
85 0.198466 2.15034 -8.93699 -4.08706 -5.1213 -3.78397 -0.0974789 -0.442776 0.0435955 -3.5291 
86 0.172078 2.15269 -6.3831 -4.07753 -5.1296 -3.80989 -0.0860523 -0.445451 0.0322707 -3.52908 
87 0.145604 2.15473 -3.82957 -4.06952 -5.13539 -3.82675 -0.0743718 -0.448153 0.0220752 -3.52907 
88 0.119047 2.15646 -1.27627 -4.06249 -5.13894 -3.83579 -0.0626921 -0.450506 0.0126418 -3.52906 
89 0.215385 4.32456 -0.000177359 -3.39639 -4.74662 -3.30053 -0.0738599 -0.932267 0.0379909 -3.53364 
90 0.2852 6.49698 1.27573 -2.77666 -4.34863 -2.86383 -0.0791359 -1.36008 0.0489375 -3.53381 
91 2.20515 2.73546 0.000422575 -3.39168 -3.54835 -3.05209 -0.416435 -0.328991 0.248083 -3.52983 
92 2.17133 2.76218 2.55357 -3.37634 -3.55691 -3.05086 -0.416343 -0.335255 0.240184 -3.52983 
93 2.29128 4.92679 1.27596 -2.72837 -3.57419 -2.73146 -0.346146 -0.805217 0.0123145 -3.53335 
94 4.288 3.33543 1.2776 -3.4018 -2.902 -2.72833 -0.498791 -0.212823 0.760399 -3.53335 
95 0.162266 4.327 2.55279 -3.38576 -4.7472 -3.29785 -0.0592795 -0.93258 0.0198622 -3.53365 
96 0.109145 4.3288 5.10583 -3.37765 -4.74739 -3.2889 -0.0443525 -0.931098 0.00140038 -3.53366 
97 0.205595 6.50006 3.82842 -2.76475 -4.35014 -2.8584 -0.0612222 -1.35878 0.0229602 -3.53382 
98 2.23073 4.9543 3.829 -2.71269 -3.58259 -2.7273 -0.336673 -0.806739 -0.003696 -3.53335 
99 0.12608 6.50211 6.38123 -2.75806 -4.35291 -2.84812 -0.0425876 -1.35609 -0.00360144 -3.53383 
100 4.24672 3.3873 3.83068 -3.38479 -2.9149 -2.72312 -0.505242 -0.227504 0.75386 -3.53336 
101 2.13715 2.78843 5.10681 -3.36171 -3.56662 -3.04297 -0.414751 -0.34066 0.232351 -3.52983 
102 2.10267 2.81421 7.66027 -3.34846 -3.57782 -3.02756 -0.41115 -0.345344 0.224404 -3.52983 
103 2.16987 4.98096 6.3822 -2.70001 -3.59263 -2.71673 -0.32509 -0.807227 -0.0198172 -3.53336 
104 4.20478 3.43856 6.38393 -3.36947 -2.93054 -2.71167 -0.50936 -0.241713 0.747077 -3.53336 
105 0.0561041 4.32994 7.65906 -3.3736 -4.74736 -3.273 -0.0288306 -0.928051 -0.0178003 -3.53368 
106 0.00322224 4.33039 10.2126 -3.37534 -4.7472 -3.2492 -0.012597 -0.924027 -0.0381224 -3.53369 
107 0.046761 6.50312 8.93431 -2.7586 -4.35728 -2.83249 -0.0232529 -1.35273 -0.0312849 -3.53383 
108 2.10879 5.00673 8.93568 -2.69176 -3.60447 -2.6989 -0.311073 -0.807136 -0.0365062 -3.53336 
109 -0.0322842 6.50306 11.4878 -2.76799 -4.36352 -2.81079 -0.00343253 -1.34955 -0.0606769 -3.53382 
110 4.16222 3.48918 8.93746 -3.35666 -2.94925 -2.69314 -0.510659 -0.255827 0.739867 -3.53336 
111 2.06792 2.83947 10.2141 -3.33748 -3.59067 -3.00335 -0.405035 -0.349647 0.216099 -3.52983 
112 2.03297 2.86418 12.7685 -3.32974 -3.60505 -2.96864 -0.396028 -0.354119 0.207088 -3.52982 
113 2.04754 5.03159 11.4896 -2.68934 -3.6181 -2.6727 -0.294462 -0.807145 -0.0543682 -3.53336 
114 4.11909 3.53911 11.4914 -3.34727 -2.97124 -2.66632 -0.508715 -0.270396 0.731967 -3.53336 
115 -0.0494357 4.33014 12.7668 -3.38437 -4.74683 -3.21621 0.00424859 -0.919764 -0.0599876 -3.5337 
116 -0.101828 4.32917 15.3217 -3.40161 -4.74577 -3.17225 0.0213832 -0.915919 -0.0839059 -3.53371 
117 -0.111007 6.50191 14.0419 -2.78712 -4.37165 -2.78187 0.0165069 -1.34728 -0.0924526 -3.5338 
118 1.98616 5.05551 14.0442 -2.69386 -3.63321 -2.63667 -0.275268 -0.808033 -0.0741568 -3.53336 
119 -0.18939 6.49966 16.5968 -2.81625 -4.38137 -2.74399 0.0361209 -1.34631 -0.12738 -3.53376 
120 4.0754 3.58832 14.046 -3.34207 -2.99652 -2.62964 -0.503197 -0.286127 0.722979 -3.53336 
121 1.99783 2.88833 15.3237 -3.32594 -3.62045 -2.92135 -0.383923 -0.359448 0.196889 -3.52981 
122 1.96252 2.91188 17.8799 -3.32631 -3.63593 -2.85888 -0.368662 -0.366366 0.184906 -3.52979 
123 1.92468 5.07844 16.5996 -2.7059 -3.6492 -2.58892 -0.253616 -0.810562 -0.0967363 -3.53335 
124 4.03118 3.63678 16.6015 -3.3415 -3.02487 -2.58109 -0.493858 -0.303844 0.712338 -3.53335 
125 -0.153936 4.32747 17.8776 -3.42728 -4.74307 -3.11489 0.0383146 -0.912906 -0.110475 -3.5337 
126 -0.205762 4.32504 20.4348 -3.46076 -4.737 -3.04081 0.0544519 -0.910843 -0.1403 -3.5337 
127 -0.267434 6.49629 19.1527 -2.85501 -4.39183 -2.6946 0.0549609 -1.3467 -0.16627 -3.53371 
128 1.8631 5.10038 19.1561 -2.72551 -3.66506 -2.52701 -0.229681 -0.815389 -0.123001 -3.53334 
129 -0.345153 6.49181 21.7099 -2.90246 -4.40136 -2.63013 0.0726256 -1.34813 -0.209824 -3.53364 
130 3.98642 3.68447 19.158 -3.34553 -3.0557 -2.51822 -0.480507 -0.324407 0.699322 -3.53334 
131 1.92706 2.93483 20.4374 -3.33031 -3.64994 -2.77813 -0.350291 -0.375549 0.170484 -3.52976 
132 1.89142 2.95717 22.9967 -3.33631 -3.66003 -2.67549 -0.328956 -0.387482 0.153054 -3.52973 
133 1.8014 5.1213 21.7141 -2.75199 -3.67918 -2.4479 -0.203664 -0.823014 -0.153731 -3.53331 
134 3.94113 3.73134 21.716 -3.35343 -3.08789 -2.43816 -0.463024 -0.348609 0.683117 -3.53332 
135 -0.257321 4.32189 22.9936 -3.50029 -4.7247 -2.94582 0.0691596 -0.909577 -0.173787 -3.53369 
136 -0.308639 4.31809 25.5544 -3.54241 -4.70164 -2.82501 0.0817799 -0.908781 -0.210751 -3.5337 
137 -0.422564 6.48626 24.2687 -2.95674 -4.40698 -2.54588 0.0887736 -1.34999 -0.258331 -3.53357 
138 1.73958 5.14119 24.2738 -2.78364 -3.689 -2.34806 -0.175854 -0.83373 -0.189314 -3.53328 
139 -0.499679 6.47972 26.8296 -3.01433 -4.40369 -2.43607 0.103076 -1.35155 -0.311112 -3.53351 
140 3.89529 3.77738 24.2756 -3.36347 -3.11934 -2.33765 -0.441465 -0.376974 0.66299 -3.53329 
141 1.85561 2.97892 25.558 -3.34094 -3.66236 -2.54713 -0.304996 -0.402249 0.132405 -3.52968 
142 1.81964 3.00011 28.1218 -3.33823 -3.65092 -2.38973 -0.279158 -0.419142 0.109196 -3.52962 
143 1.67763 5.16011 26.8357 -2.81707 -3.69052 -2.2238 -0.146824 -0.84747 -0.22927 -3.53323 
144 3.84894 3.8226 26.8375 -3.37223 -3.14639 -2.2133 -0.416295 -0.409368 0.638639 -3.53324 
145 -0.359745 4.31371 28.1177 -3.58075 -4.661 -2.67342 0.0916469 -0.908069 -0.249788 -3.53373 
146 -0.410667 4.3089 30.684 -3.60442 -4.59322 -2.48771 0.0981713 -0.907052 -0.287579 -3.53381 
147 -0.576513 6.47235 29.393 -3.0687 -4.3835 -2.29449 0.115102 -1.35213 -0.365725 -3.53348 
148 1.61557 5.17816 29.4002 -2.846 -3.67757 -2.07197 -0.117746 -0.863428 -0.271474 -3.53318 
149 -0.653076 6.46443 31.9595 -3.10834 -4.33453 -2.11637 0.124189 -1.35122 -0.41721 -3.5335 
150 3.80214 3.86706 29.4019 -3.37362 -3.16272 -2.06201 -0.388745 -0.444311 0.610823 -3.53318 
151 1.78358 3.02085 30.6886 -3.31842 -3.61691 -2.20177 -0.252922 -0.436107 0.0856888 -3.52957 
152 1.74754 3.04133 33.2587 -3.26786 -3.54916 -1.98543 -0.228666 -0.449482 0.0661305 -3.52956 
153 1.55348 5.19556 31.9678 -2.8596 -3.64115 -1.89105 -0.090724 -0.879373 -0.311291 -3.53312 
154 3.75509 3.91089 31.9693 -3.35741 -3.15832 -1.88195 -0.361115 -0.478145 0.582226 -3.53311 
155 -0.461415 4.30389 33.2536 -3.59727 -4.48693 -2.26906 0.101119 -0.905198 -0.318932 -3.53397 
156 -0.511964 4.2989 35.8266 -3.5412 -4.3332 -2.02615 0.101075 -0.901539 -0.339265 -3.53423 
157 -0.729364 6.45635 34.5294 -3.11537 -4.24126 -1.90201 0.129527 -1.34827 -0.458466 -3.53363 
158 1.4915 5.21268 34.5386 -2.84144 -3.56918 -1.6828 -0.0686928 -0.890984 -0.341658 -3.53308 
159 -0.805316 6.44849 37.103 -3.06823 -4.08899 -1.66158 0.130831 -1.34191 -0.483765 -3.53389 
160 3.70806 3.95433 34.54 -3.30822 -3.11917 -1.67429 -0.336591 -0.504942 0.557854 -3.53308 
161 1.7117 3.06174 35.8321 -3.17231 -3.43763 -1.74793 -0.209053 -0.455294 0.0551017 -3.52962 
162 1.67619 3.0822 38.4085 -3.02598 -3.28049 -1.50009 -0.195189 -0.453051 0.0522878 -3.52978 
163 1.42989 5.2299 37.1129 -2.77232 -3.44888 -1.45414 -0.054312 -0.892901 -0.356558 -3.53314 
164 3.66142 3.99768 37.1141 -3.2077 -3.03095 -1.44572 -0.317969 -0.519201 0.542913 -3.53313 
165 -0.562238 4.29398 38.4028 -3.42713 -4.13434 -1.77421 0.0997297 -0.894818 -0.350053 -3.53458 
166 -0.612147 4.28897 40.9816 -3.26245 -3.90644 -1.5257 0.0993255 -0.884431 -0.36024 -3.53492 
167 -0.880809 6.44093 39.6798 -2.95513 -3.8773 -1.41506 0.129371 -1.33033 -0.496142 -3.53425 
168 1.36885 5.24742 39.6902 -2.64153 -3.27558 -1.21693 -0.0479456 -0.883757 -0.359176 -3.53331 
169 -0.955735 6.4334 42.259 -2.78436 -3.62638 -1.1803 0.127882 -1.31342 -0.508319 -3.53461 
170 3.61542 4.04109 39.6913 -3.04548 -2.8886 -1.20862 -0.305645 -0.522048 0.536058 -3.5333 
171 1.64104 3.10262 40.9876 -2.83718 -3.08668 -1.24968 -0.185383 -0.44792 0.0497479 -3.53 
172 1.60614 3.12288 43.5687 -2.61584 -2.86435 -0.994397 -0.177102 -0.446379 0.0392438 -3.53027 
173 1.30846 5.26509 42.2698 -2.45546 -3.05848 -0.981335 -0.0467562 -0.869975 -0.363862 -3.53355 
174 3.57001 4.08447 42.2709 -2.8289 -2.7006 -0.974808 -0.297425 -0.523227 0.526466 -3.53354 
175 -0.661675 4.28369 43.5624 -3.05834 -3.66003 -1.28021 0.101044 -0.871174 -0.378165 -3.53523 
176 -0.710993 4.27811 46.1447 -2.82677 -3.3934 -1.01801 0.104119 -0.857227 -0.409102 -3.53549 
177 -1.03015 6.42571 44.8395 -2.56306 -3.34341 -0.96423 0.127791 -1.29346 -0.52547 -3.53495 
178 1.24856 5.28277 44.851 -2.22138 -2.80256 -0.748928 -0.0489773 -0.85998 -0.382051 -3.53386 
179 -1.10443 6.41817 47.4204 -2.29845 -3.01766 -0.779252 0.130003 -1.27507 -0.537615 -3.53528 
180 3.52497 4.12776 44.852 -2.5633 -2.47452 -0.750038 -0.290655 -0.5316 0.505627 -3.53383 
181 1.57129 3.14295 46.1516 -2.36653 -2.61633 -0.716773 -0.169962 -0.455926 0.0125938 -3.53054 
182 1.53636 3.16327 48.7364 -2.09018 -2.36101 -0.34603 -0.182733 -0.478805 -0.0259283 -3.53015 
183 1.1887 5.30046 47.4331 -1.94583 -2.5056 -0.518033 -0.0628647 -0.866552 -0.426583 -3.53411 
184 3.48005 4.171 47.4338 -2.24251 -2.22062 -0.54195 -0.285326 -0.557945 0.462268 -3.53403 
185 -0.76061 4.27328 48.7285 -2.60409 -3.07516 -0.672053 0.0974574 -0.84964 -0.413233 -3.53515 
186 -0.811621 4.26877 51.3169 -1.98848 -2.35116 0.310514 0.083884 -0.84171 -0.653436 -3.53805 
187 -1.17889 6.41384 50.0002 -2.05966 -2.54262 -0.336544 0.0873553 -1.28001 -0.616732 -3.53572 
188 1.12775 5.31799 50.0156 -1.56907 -2.0788 -0.0206356 -0.110957 -0.945825 -0.595134 -3.53485 
189 -1.25707 6.40546 52.5877 -1.61235 -2.48689 0.643292 0.175758 -1.31617 -0.613147 -3.53282 
190 3.43505 4.21346 50.0156 -1.75825 -1.85272 -0.0377812 -0.309223 -0.668242 0.314297 -3.53491 
191 1.50027 3.18358 51.3264 -1.43157 -1.70133 0.65862 -0.172626 -0.548365 -0.133357 -3.53273 
192 1.46587 3.20964 53.9052 0.0267049 0.953996 -0.795858 0.566309 -0.560981 0.138976 -3.37565 
193 1.06597 5.33731 52.6041 -1.24921 -1.89855 0.441477 -0.236969 -0.801328 -0.410829 -3.52779 
194 3.38747 4.26008 52.6041 -1.41016 -1.71355 0.389827 -0.390659 -0.639448 0.587316 -3.52746 
195 -0.866323 4.2769 53.8949 -0.0508719 -0.206133 -1.18049 0.0793769 -1.26166 1.02744 -3.38132 
196 1.3298 4.1174 -56.3442 5.06942 2.90559 1.60242 -1.25473 -0.273892 0.110264 -2.79034 
197 -1.33605 6.40133 55.1665 4.18005 2.79745 1.28995 0.319922 -1.5232 0.197878 -3.26107 
198 1.00488 5.36129 55.1754 5.64208 6.63186 2.70774 0.369861 -0.636459 -0.0326194 -3.15047 
199 1.98371 6.26223 -55.1334 6.93988 9.11553 2.92916 0.134188 -0.847907 -0.525656 -3.02309 
200 3.34328 4.30996 55.1754 5.53064 7.35767 2.86911 0.118704 -0.278627 0.562634 -3.15115 
201 2.87095 2.09325 -56.362 4.04253 6.0065 1.881 -3.16453 0.252643 0.341789 -2.79939 
202 2.84551 2.1252 -53.8874 0.165013 0.763298 -3.02646 -0.982111 -0.732816 -0.162366 -3.51266 
203 3.53831 4.21674 -55.1525 6.03166 6.27391 1.75937 0.302437 -1.21951 -0.0444718 -3.1433 
204 5.07312 2.13635 -55.1525 6.04997 7.03887 2.00316 0.446065 -0.52812 0.0805363 -3.14511 
205 1.29262 4.16451 -53.8815 0.861269 -0.348241 -3.67504 -0.408879 -0.573881 0.839002 -3.51412 
206 1.24176 4.17585 -51.3147 -1.28678 -1.91097 -0.373711 -0.214932 -0.880559 0.22015 -3.53903 
207 1.90264 6.26187 -52.5941 -0.917834 -1.4568 -0.573025 -0.18418 -1.16803 0.820001 -3.52792 
208 3.4607 4.22944 -52.6036 -0.748869 -0.92583 0.0954561 -0.677535 -0.496069 0.191366 -3.53019 
209 1.82403 6.27282 -50.0101 -1.6426 -2.32537 -0.262291 -0.20045 -1.28168 0.432908 -3.53673 
210 5.01221 2.17771 -52.6036 -1.34184 -0.348562 0.0546313 -0.502575 0.0191983 0.991505 -3.52952 
211 2.80522 2.14769 -51.32 -1.10366 -0.946841 -0.112603 -0.278076 -0.333003 0.261785 -3.53414 
212 2.77226 2.17461 -48.7405 -1.96841 -1.83656 -0.545318 -0.291594 -0.223797 0.337857 -3.53087 
213 3.40036 4.25787 -50.02 -1.4313 -1.65377 -0.138809 -0.40836 -0.708864 0.286267 -3.53497 
214 4.971 2.23184 -50.02 -1.84403 -1.2739 -0.113563 -0.29636 0.0208428 0.835911 -3.535 
215 1.18965 4.18042 -48.7355 -2.17779 -2.75553 -0.785634 -0.180377 -0.850213 0.283946 -3.5364 
216 1.13971 4.18649 -46.154 -2.63682 -3.19119 -0.973679 -0.16516 -0.833746 0.401959 -3.53604 
217 1.74857 6.27864 -47.4305 -2.10018 -2.83285 -0.673238 -0.213685 -1.24125 0.546188 -3.53588 
218 3.345 4.28749 -47.4411 -1.8979 -2.20786 -0.561291 -0.301197 -0.639429 0.335792 -3.53414 
219 1.67463 6.29042 -44.8494 -2.46952 -3.191 -0.861672 -0.201007 -1.2448 0.604494 -3.53533 
220 4.9348 2.28445 -47.4403 -2.32159 -1.78823 -0.540566 -0.212352 0.105675 0.864864 -3.53419 
221 2.74197 2.20189 -46.1593 -2.3642 -2.26786 -0.738524 -0.231981 -0.16158 0.392514 -3.53074 
222 2.71357 2.23052 -43.5775 -2.67646 -2.59077 -0.949983 -0.21615 -0.150187 0.412647 -3.53037 
223 3.29147 4.31966 -44.8604 -2.23364 -2.57309 -0.716577 -0.26083 -0.625362 0.371084 -3.53392 
224 4.90188 2.3375 -44.8595 -2.65673 -2.14342 -0.721823 -0.178319 0.143127 0.896052 -3.53392 
225 1.09053 4.19502 -43.572 -2.97539 -3.51149 -1.20166 -0.152944 -0.841645 0.42717 -3.53553 
226 1.04126 4.20425 -40.9909 -3.23498 -3.78674 -1.44292 -0.150977 -0.854662 0.433506 -3.53509 
227 1.60089 6.30389 -42.2683 -2.75172 -3.49747 -1.08883 -0.200616 -1.26254 0.619886 -3.53483 
228 3.23887 4.3533 -42.2794 -2.50701 -2.86963 -0.916602 -0.244003 -0.62772 0.388599 -3.5336 
229 1.52668 6.31805 -39.6884 -2.96228 -3.76472 -1.33275 -0.207714 -1.28162 0.623323 -3.53438 
230 4.87049 2.39143 -42.2785 -2.93994 -2.42588 -0.927515 -0.167784 0.154781 0.920984 -3.5336 
231 2.68573 2.25987 -40.9963 -2.93234 -2.85222 -1.18038 -0.213711 -0.148217 0.426384 -3.53006 
232 2.65797 2.28981 -38.4167 -3.14579 -3.06715 -1.42283 -0.218733 -0.147426 0.437696 -3.52981 
233 3.1865 4.38798 -39.6994 -2.7242 -3.10971 -1.14056 -0.238762 -0.632623 0.398837 -3.53333 
234 4.83968 2.44632 -39.6985 -3.17674 -2.64389 -1.1514 -0.16855 0.159496 0.942471 -3.53333 
235 0.991606 4.21374 -38.4113 -3.43433 -4.03119 -1.69409 -0.156232 -0.866982 0.434403 -3.53468 
236 0.941526 4.22344 -35.8343 -3.57515 -4.24163 -1.94991 -0.165853 -0.876843 0.4289 -3.53431 
237 1.45185 6.3327 -37.1107 -3.10436 -3.98835 -1.58503 -0.218574 -1.29738 0.618052 -3.53398 
238 3.13412 4.4236 -37.1215 -2.8856 -3.2934 -1.37466 -0.242263 -0.638936 0.400933 -3.53314 
239 1.37645 6.34787 -34.5362 -3.17897 -4.15734 -1.83203 -0.228946 -1.30939 0.599089 -3.53367 
240 4.80917 2.50218 -37.1205 -3.36419 -2.80036 -1.38419 -0.178889 0.159147 0.956183 -3.53314 
241 2.63022 2.3203 -35.8394 -3.31581 -3.23601 -1.66956 -0.230653 -0.149244 0.443356 -3.52963 
242 2.60244 2.35126 -33.2649 -3.43789 -3.35671 -1.91021 -0.249257 -0.157029 0.439514 -3.52955 
243 3.08164 4.46005 -34.5463 -2.98912 -3.41943 -1.60525 -0.253829 -0.649948 0.389652 -3.53306 
244 4.77887 2.55887 -34.5453 -3.49705 -2.89738 -1.61385 -0.198942 0.148764 0.957104 -3.53306 
245 0.891088 4.23336 -33.2603 -3.65697 -4.40913 -2.19897 -0.176479 -0.884515 0.412911 -3.53401 
246 0.840368 4.2434 -30.6897 -3.68732 -4.53097 -2.42769 -0.185112 -0.890851 0.385367 -3.5338 
247 1.30059 6.3634 -31.9652 -3.19623 -4.26972 -2.05752 -0.235791 -1.31876 0.56409 -3.53349 
248 3.02897 4.49703 -31.9745 -3.03959 -3.49507 -1.81966 -0.271774 -0.666649 0.363829 -3.53307 
249 1.22435 6.37897 -29.3977 -3.17406 -4.33525 -2.25045 -0.238085 -1.32608 0.516593 -3.53342 
250 4.74863 2.61614 -31.9733 -3.57781 -2.94439 -1.82814 -0.227151 0.125918 0.945129 -3.53306 
251 2.57456 2.38251 -30.6937 -3.51351 -3.43352 -2.13351 -0.272767 -0.171443 0.425954 -3.52954 
252 2.54643 2.41383 -28.1258 -3.55122 -3.47698 -2.33103 -0.298259 -0.190131 0.406008 -3.52957 
253 2.97593 4.53414 -29.4059 -3.04949 -3.53439 -2.00961 -0.293116 -0.686657 0.327947 -3.53312 
254 4.71816 2.67365 -29.4046 -3.61695 -2.95674 -2.01845 -0.260145 0.09339 0.924718 -3.5331 
255 0.789406 4.25336 -28.1224 -3.68094 -4.61307 -2.62643 -0.189975 -0.89632 0.349419 -3.53368 
256 0.738214 4.26303 -25.5582 -3.65302 -4.66515 -2.79163 -0.190535 -0.900983 0.30969 -3.53362 
257 1.14774 6.39418 -26.8335 -3.13 -4.3677 -2.40751 -0.236014 -1.33146 0.462706 -3.53342 
258 2.92237 4.57099 -26.8405 -3.03304 -3.55112 -2.17171 -0.314619 -0.706975 0.287986 -3.53318 
259 1.07078 6.40871 -24.272 -3.0773 -4.37944 -2.53098 -0.230092 -1.33514 0.407851 -3.53347 
260 4.68716 2.73111 -26.8391 -3.62689 -2.94912 -2.18078 -0.294298 0.056086 0.900862 -3.53316 
261 2.51792 2.44502 -25.561 -3.56207 -3.4987 -2.49883 -0.322996 -0.210131 0.383634 -3.52962 
262 2.48893 2.47592 -22.9988 -3.55598 -3.50808 -2.63683 -0.345156 -0.229307 0.361671 -3.52967 
263 2.86817 4.60731 -24.2778 -3.0021 -3.55553 -2.30612 -0.333764 -0.725539 0.248457 -3.53323 
264 4.65541 2.78834 -24.2763 -3.61838 -2.93248 -2.31486 -0.326958 0.0182983 0.877121 -3.53321 
265 0.686795 4.27221 -22.9967 -3.61534 -4.69669 -2.92448 -0.187042 -0.904862 0.269998 -3.5336 
266 0.635159 4.28079 -20.4373 -3.57565 -4.7152 -3.02877 -0.180114 -0.908108 0.232668 -3.5336 
267 0.993485 6.42234 -21.7127 -3.02444 -4.37968 -2.62579 -0.220894 -1.33765 0.355537 -3.53353 
268 2.8133 4.64292 -21.7174 -2.96508 -3.55432 -2.41496 -0.34912 -0.741419 0.211847 -3.53327 
269 0.915871 6.43495 -19.1551 -2.97615 -4.37453 -2.69742 -0.209034 -1.33963 0.307471 -3.53359 
270 4.62276 2.84519 -21.7158 -3.59946 -2.91389 -2.4228 -0.356661 -0.0172617 0.855475 -3.53325 
271 2.45942 2.50645 -20.4388 -3.54042 -3.51158 -2.74745 -0.363866 -0.246574 0.341615 -3.52971 
272 2.42937 2.53657 -17.8807 -3.52046 -3.51311 -2.8343 -0.37895 -0.261637 0.323993 -3.52975 
273 2.75774 4.67773 -19.159 -2.92731 -3.55149 -2.50136 -0.36021 -0.754519 0.179099 -3.5333 
274 4.58917 2.90162 -19.1573 -3.57557 -2.89737 -2.50796 -0.382861 -0.0493546 0.836744 -3.53328 
275 0.583319 4.2887 -17.8797 -3.53844 -4.72596 -3.10912 -0.170474 -0.910987 0.198734 -3.5336 
276 0.531286 4.29592 -15.3234 -3.50587 -4.73239 -3.17006 -0.158819 -0.913797 0.168385 -3.53361 
277 0.83796 6.44648 -16.599 -2.93451 -4.36767 -2.75087 -0.195152 -1.34163 0.264111 -3.53365 
278 2.70151 4.71172 -16.602 -2.89177 -3.5492 -2.56876 -0.36719 -0.765206 0.150229 -3.53332 
279 0.759765 6.45691 -14.0439 -2.89985 -4.36112 -2.79026 -0.179864 -1.34405 0.225205 -3.53369 
280 4.55463 2.95757 -16.6003 -3.55014 -2.88484 -2.57401 -0.405571 -0.07776 0.821028 -3.53331 
281 2.3988 2.56626 -15.324 -3.49922 -3.51481 -2.90127 -0.39065 -0.274672 0.308766 -3.52977 
282 2.36772 2.59552 -12.7685 -3.47845 -3.51763 -2.95202 -0.399419 -0.286066 0.295625 -3.52979 
283 2.64463 4.74487 -14.0462 -2.85982 -3.54844 -2.62047 -0.370564 -0.774023 0.124792 -3.53333 
284 4.51915 3.01303 -14.0446 -3.52511 -2.87691 -2.62442 -0.425112 -0.10283 0.808035 -3.53332 
285 0.479069 4.30242 -12.7682 -3.47856 -4.73656 -3.21553 -0.145765 -0.916798 0.141352 -3.53362 
286 0.426672 4.30822 -10.2137 -3.45617 -4.73959 -3.24878 -0.13183 -0.920127 0.117165 -3.53362 
287 0.68129 6.46624 -11.4897 -2.87137 -4.35582 -2.81885 -0.163709 -1.34707 0.19017 -3.53373 
288 2.58714 4.77719 -11.4914 -2.83171 -3.54945 -2.65947 -0.370971 -0.781494 0.102169 -3.53334 
289 0.602539 6.47448 -8.93596 -2.84769 -4.35203 -2.8391 -0.147108 -1.35061 0.15831 -3.53375 
290 4.48275 3.06801 -11.4897 -3.50139 -2.87338 -2.66219 -0.441938 -0.125153 0.797291 -3.53333 
291 2.33614 2.62435 -10.2138 -3.4589 -3.52183 -2.9897 -0.40579 -0.296233 0.284168 -3.5298 
292 2.30408 2.65276 -7.65973 -3.44073 -3.52724 -3.0169 -0.410293 -0.305497 0.274002 -3.52981 
293 2.52904 4.8087 -8.9372 -2.80701 -3.55209 -2.68822 -0.369055 -0.787997 0.0817356 -3.53334 
294 4.44546 3.1225 -8.93556 -3.47921 -2.87369 -2.68979 -0.456533 -0.145337 0.788273 -3.53334 
295 0.374095 4.31331 -7.65985 -3.43776 -4.74201 -3.27236 -0.11743 -0.923724 0.0952867 -3.53362 
296 0.321342 4.31772 -5.10638 -3.42224 -4.744 -3.28813 -0.102875 -0.927296 0.0751674 -3.53363 
297 0.523518 6.48165 -6.38269 -2.82726 -4.34964 -2.85278 -0.130332 -1.35429 0.128922 -3.53377 
298 2.47038 4.83941 -6.38352 -2.78496 -3.55606 -2.70868 -0.365364 -0.793703 0.0629408 -3.53334 
299 0.444251 6.48778 -3.82972 -2.80881 -4.3484 -2.8611 -0.113478 -1.35752 0.101325 -3.53378 
300 4.40732 3.1765 -6.3819 -3.45843 -2.87716 -2.7091 -0.469323 -0.163889 0.780478 -3.53334 
301 2.27155 2.68074 -5.1061 -3.42369 -3.53358 -3.03556 -0.413392 -0.314037 0.264781 -3.52982 
302 2.23857 2.70831 -2.55276 -3.40744 -3.54064 -3.04705 -0.415403 -0.321889 0.256219 -3.52982 
303 2.41117 4.86933 -3.83019 -2.76478 -3.56111 -2.72223 -0.360269 -0.798585 0.0453353 -3.53334 
304 4.36833 3.23 -3.82857 -3.43873 -2.88321 -2.72148 -0.480601 -0.181176 0.773463 -3.53335 
305 0.268428 4.32147 -2.5532 -3.40862 -4.74555 -3.29732 -0.0883445 -0.930342 0.0562522 -3.53363 
306 0.364786 6.49289 -1.27695 -2.79181 -4.34809 -2.8647 -0.096478 -1.35962 0.0748684 -3.5338 
307 2.35145 4.89846 -1.27707 -2.74592 -3.56711 -2.72972 -0.353904 -0.802481 0.0285604 -3.53335 
308 4.32855 3.28299 -1.27545 -3.41987 -2.8915 -2.72777 -0.490466 -0.197434 0.766864 -3.53335 
309 2.43636 7.09067 -0.000769166 -2.22105 -3.36374 -2.40265 -0.317666 -1.2092 -0.188484 -3.53289 
310 0.434615 8.66784 -0.000972673 -2.25234 -4.02065 -2.49709 -0.100067 -1.7466 0.0828117 -3.53355 