ITEM: TIMESTEP
934
ITEM: NUMBER OF ATOMS
37664
ITEM: BOX BOUNDS ff ff ff
-100 100
-100 100
-156.15 156.15
ITEM: ATOMS id x y z v_peratom_sxx v_peratom_syy v_peratom_szz v_peratom_sxy v_peratom_sxz v_peratom_syz c_atomPE 
1 -0.00369542 -0.00219006 0.00106051 -5.17904 -5.17176 -9.53868 0.000249006 -0.0114426 -0.0280027 -3.51528 
2 -0.00399583 -0.00207478 2.55431 -5.17832 -5.17097 -9.5377 -0.000169285 -0.013591 -0.0268281 -3.51527 
3 -0.00432314 -0.00190515 5.10762 -5.17313 -5.16607 -9.527 -0.000833101 -0.0139022 -0.0255679 -3.51532 
4 -0.00466375 -0.0016856 7.66113 -5.16264 -5.15645 -9.50509 -0.00173305 -0.0118483 -0.0243717 -3.51541 
5 -0.00499324 -0.00143035 10.215 -5.14588 -5.14126 -9.46986 -0.00278221 -0.0072973 -0.0232501 -3.51557 
6 -0.00527949 -0.00115947 12.7694 -5.12177 -5.11932 -9.41866 -0.00383141 -0.000600443 -0.0220661 -3.5158 
7 -0.00548874 -0.000893251 15.3246 -5.08898 -5.08908 -9.3483 -0.00471605 0.00747343 -0.0206092 -3.51612 
8 -0.00559261 -0.00064738 17.8809 -5.04564 -5.04838 -9.25489 -0.00530826 0.0159337 -0.0187054 -3.51655 
9 -0.00557367 -0.000430591 20.4386 -4.98907 -4.99417 -9.13376 -0.00554908 0.0238033 -0.0163024 -3.5171 
10 -0.00542799 -0.000245122 22.998 -4.9154 -4.92235 -8.97943 -0.00545308 0.0303083 -0.013501 -3.5178 
11 -0.00516453 -8.90349e-05 25.5597 -4.81934 -4.8275 -8.78628 -0.00509184 0.0349837 -0.0105342 -3.51866 
12 -0.00480196 4.08552e-05 28.124 -4.69454 -4.70326 -8.55016 -0.0045669 0.0376931 -0.00770898 -3.51969 
13 -0.00436408 0.000146655 30.6914 -4.535 -4.54374 -8.27152 -0.00398115 0.0385844 -0.0053264 -3.52089 
14 -0.00387488 0.000228444 33.262 -4.33901 -4.34734 -7.9591 -0.00341619 0.0380086 -0.00360119 -3.5222 
15 -0.00335437 0.000284698 35.8358 -4.11428 -4.12196 -7.63042 -0.00292061 0.036425 -0.00261125 -3.52347 
16 -0.00281614 0.00031319 38.4125 -3.87682 -3.8837 -7.30385 -0.00251003 0.0343031 -0.0023039 -3.52458 
17 -0.00226624 0.00031133 40.9917 -3.63818 -3.64422 -6.98585 -0.00217325 0.0320514 -0.00255606 -3.52548 
18 -0.00170078 0.000275989 43.5731 -3.39935 -3.40453 -6.66366 -0.00187625 0.03006 -0.00322817 -3.5262 
19 -0.00110182 0.000203057 46.1569 -3.13512 -3.13931 -6.30052 -0.00154911 0.0287042 -0.00417166 -3.52695 
20 -0.000440082 8.41702e-05 48.7435 -2.7519 -2.75414 -5.86109 -0.000860017 0.0278011 -0.00533201 -3.52782 
21 5.95933e-07 -4.11185e-08 51.3317 -1.92307 -1.92291 -4.91979 7.97732e-05 -0.00140488 0.000264424 -3.53203 
22 4.01304e-07 -1.42881e-06 53.9138 -0.851904 -0.851914 -8.91777 8.60685e-07 -2.86926e-05 -7.13577e-05 -3.48169 
23 8.71386e-07 -1.98378e-06 56.3885 1.68559 1.6856 1.87688 -1.55537e-05 2.40461e-05 -2.79494e-07 -2.55581 
24 -1.23087e-07 -1.12453e-06 -53.8876 -2.60695 -2.60698 -6.5496 -1.84504e-05 1.06042e-05 -3.24732e-05 -3.40183 
25 1.02659e-07 -1.55837e-06 -51.3239 -2.07913 -2.0793 -5.57933 -0.000270989 0.000686002 0.00146575 -3.52873 
26 -0.000175407 -0.000417472 -48.7462 -2.69421 -2.69165 -6.14722 0.00356926 -0.0111226 -0.0260742 -3.5264 
27 -0.000408513 -0.00100582 -46.1646 -3.0213 -3.01673 -6.34718 0.00631705 -0.00930789 -0.0244009 -3.52678 
28 -0.000579648 -0.00145491 -43.5822 -3.30294 -3.29657 -6.60756 0.00694253 -0.00600518 -0.0231727 -3.52635 
29 -0.000692419 -0.00179884 -41.0007 -3.55861 -3.55024 -6.89601 0.00687787 -0.00237714 -0.0223589 -3.52575 
30 -0.000766558 -0.00205676 -38.4209 -3.80918 -3.79879 -7.20495 0.00634388 0.0012754 -0.0217927 -3.52491 
31 -0.00082416 -0.0022402 -35.8434 -4.05588 -4.0437 -7.53032 0.00545403 0.00463557 -0.0213843 -3.52385 
32 -0.000887712 -0.00235911 -33.2686 -4.28927 -4.27577 -7.86095 0.00433856 0.00735635 -0.0211496 -3.52261 
33 -0.000977155 -0.00242474 -30.6968 -4.49626 -4.48207 -8.17919 0.00316226 0.00916633 -0.0211595 -3.52132 
34 -0.00110615 -0.00244974 -28.1283 -4.66829 -4.6541 -8.46787 0.00209482 0.00996804 -0.0214837 -3.5201 
35 -0.0012794 -0.00244671 -25.5629 -4.80438 -4.7908 -8.71642 0.00126512 0.0098729 -0.022142 -3.51901 
36 -0.00149228 -0.00242664 -23.0002 -4.90858 -4.89603 -8.92188 0.000728464 0.0091442 -0.023087 -3.5181 
37 -0.00173306 -0.00239821 -20.4398 -4.98678 -4.97549 -9.08666 0.00046263 0.0080716 -0.0242257 -3.51736 
38 -0.00198692 -0.002368 -17.8814 -5.0448 -5.03478 -9.21581 0.000392201 0.0068408 -0.0254531 -3.51677 
39 -0.00224046 -0.00234116 -15.3244 -5.08753 -5.07863 -9.31516 0.000426582 0.00546097 -0.0266715 -3.51632 
40 -0.00248523 -0.00232127 -12.7687 -5.1188 -5.11079 -9.39021 0.000492649 0.00378338 -0.0277842 -3.51597 
41 -0.00271939 -0.0023092 -10.2138 -5.14148 -5.13409 -9.44579 0.000548451 0.00160125 -0.0286792 -3.51571 
42 -0.00294755 -0.00230138 -7.65951 -5.15767 -5.15062 -9.48584 0.000575794 -0.0012135 -0.0292273 -3.51553 
43 -0.00317895 -0.00228864 -5.10573 -5.16883 -5.16185 -9.51343 0.000559957 -0.00459003 -0.0293129 -3.5154 
44 -0.00342489 -0.00225689 -2.55224 -5.17583 -5.16874 -9.53066 0.000469579 -0.0081946 -0.0288854 -3.51532 
45 0.09242 2.15789 1.27692 -4.05607 -5.14032 -3.8375 -0.0511433 -0.452058 0.00359121 -3.52907 
46 0.0657493 2.15903 3.83011 -4.05003 -5.13948 -3.83168 -0.0397448 -0.452276 -0.00555001 -3.52908 
47 0.0390765 2.15988 6.38343 -4.04474 -5.13632 -3.81754 -0.0283222 -0.450915 -0.0151038 -3.5291 
48 0.0124528 2.16043 8.93703 -4.04092 -5.1306 -3.79382 -0.0166565 -0.448022 -0.0253317 -3.52913 
49 -0.0140674 2.16065 11.4911 -4.03955 -5.12195 -3.75887 -0.00458642 -0.443977 -0.0364232 -3.52917 
50 -0.0404353 2.16052 14.0458 -4.04156 -5.10963 -3.71063 0.00787157 -0.439369 -0.0485638 -3.52922 
51 -0.0666154 2.16003 16.6015 -4.04741 -5.09243 -3.64646 0.0204645 -0.434814 -0.0620038 -3.52928 
52 -0.0925897 2.15918 19.1584 -4.05681 -5.06841 -3.56304 0.032715 -0.430798 -0.0770756 -3.52935 
53 -0.118358 2.15795 21.7168 -4.06827 -5.03467 -3.45628 0.0439807 -0.427593 -0.0941186 -3.52943 
54 -0.143935 2.15639 24.2772 -4.07859 -4.98695 -3.32157 0.0535361 -0.425249 -0.113264 -3.52953 
55 -0.169345 2.15452 26.8399 -4.08198 -4.91927 -3.15453 0.0606825 -0.423623 -0.134032 -3.52967 
56 -0.194618 2.15241 29.4055 -4.06898 -4.82389 -2.95269 0.064924 -0.422426 -0.154767 -3.52986 
57 -0.219776 2.15014 31.9742 -4.02629 -4.69271 -2.71815 0.0662527 -0.42126 -0.17233 -3.53012 
58 -0.244823 2.14783 34.5463 -3.94006 -4.52132 -2.45989 0.0654617 -0.419631 -0.183226 -3.53047 
59 -0.269737 2.1455 37.1216 -3.80473 -4.31511 -2.19214 0.0641036 -0.416957 -0.187173 -3.53087 
60 -0.294476 2.1431 39.6996 -3.62857 -4.08875 -1.92636 0.0637436 -0.412768 -0.189209 -3.53128 
61 -0.319017 2.14052 42.2798 -3.42351 -3.853 -1.66289 0.0650953 -0.407158 -0.195431 -3.53164 
62 -0.343394 2.13769 44.8621 -3.19601 -3.60469 -1.39033 0.067403 -0.400693 -0.212413 -3.53193 
63 -0.367768 2.13484 47.4464 -2.91615 -3.29372 -1.10609 0.0673334 -0.395799 -0.231875 -3.53223 
64 -0.392512 2.13371 50.032 -2.43434 -2.80059 -0.495141 0.0605486 -0.414678 -0.201193 -3.53323 
65 -0.418483 2.1304 52.6263 -1.76577 -2.00552 -0.561409 0.0455072 -0.308932 -0.729995 -3.52457 
66 -0.44812 2.14653 55.1778 6.97659 7.73843 2.4309 0.0330153 -0.597322 1.77022 -3.02528 
67 0.649859 2.05055 -55.162 1.38944 0.842384 -0.678373 -0.188253 -0.0991979 1.20761 -3.26036 
68 0.633027 2.08274 -52.6122 -1.11196 -2.21867 -0.457719 -0.374491 -0.489286 -0.161471 -3.53566 
69 0.607028 2.08678 -50.0319 -2.00274 -2.55474 -0.871411 -0.170279 -0.429516 0.0813299 -3.53398 
70 0.581321 2.08835 -47.4532 -2.63757 -3.07113 -1.20635 -0.127048 -0.403273 0.155228 -3.5329 
71 0.556519 2.09191 -44.8711 -3.0589 -3.44044 -1.36631 -0.106755 -0.397644 0.198691 -3.53225 
72 0.531903 2.09624 -42.2892 -3.35781 -3.72594 -1.59525 -0.0982526 -0.401402 0.210284 -3.53183 
73 0.507177 2.10078 -39.7085 -3.60145 -3.98192 -1.84591 -0.0970972 -0.406795 0.216217 -3.53141 
74 0.482247 2.1054 -37.1298 -3.80371 -4.21995 -2.10958 -0.101531 -0.411748 0.21972 -3.53098 
75 0.457109 2.11011 -34.5537 -3.96141 -4.43495 -2.37911 -0.109909 -0.415882 0.21846 -3.53055 
76 0.431795 2.11491 -31.9806 -4.07028 -4.61714 -2.64241 -0.119901 -0.419506 0.20973 -3.53018 
77 0.406331 2.11974 -29.4108 -4.13366 -4.7613 -2.88578 -0.128976 -0.42291 0.193523 -3.52988 
78 0.380732 2.12449 -26.8442 -4.16192 -4.86952 -3.09916 -0.135278 -0.426132 0.17242 -3.52965 
79 0.355005 2.12909 -24.2805 -4.167 -4.94819 -3.27831 -0.137992 -0.429082 0.149481 -3.52948 
80 0.329156 2.13343 -21.7193 -4.15881 -5.0045 -3.42379 -0.137126 -0.431694 0.126964 -3.52936 
81 0.303197 2.13748 -19.1602 -4.14433 -5.0447 -3.53894 -0.133132 -0.433987 0.106113 -3.52927 
82 0.277141 2.14121 -16.6027 -4.12801 -5.07357 -3.62824 -0.126613 -0.436072 0.0874132 -3.52921 
83 0.250998 2.1446 -14.0466 -4.11238 -5.09454 -3.69622 -0.118158 -0.438122 0.0708981 -3.52916 
84 0.224774 2.14764 -11.4914 -4.09864 -5.10993 -3.74698 -0.108286 -0.440317 0.056386 -3.52912 
85 0.19847 2.15033 -8.937 -4.08712 -5.1213 -3.78395 -0.0974429 -0.442769 0.0436153 -3.5291 
86 0.172081 2.15269 -6.3831 -4.07759 -5.12959 -3.80988 -0.086017 -0.445455 0.0322955 -3.52908 
87 0.145606 2.15473 -3.82957 -4.06958 -5.13539 -3.82674 -0.0743415 -0.448171 0.0221043 -3.52907 
88 0.119048 2.15645 -1.27627 -4.06254 -5.13894 -3.83578 -0.0626712 -0.450535 0.0126727 -3.52906 
89 0.215386 4.32456 -0.000176975 -3.39644 -4.74661 -3.30054 -0.0738606 -0.932311 0.0380092 -3.53364 
90 0.285199 6.49698 1.27573 -2.77663 -4.34862 -2.86383 -0.0791537 -1.36011 0.0489457 -3.53381 
91 2.20515 2.73546 0.000422369 -3.39171 -3.54834 -3.05208 -0.416432 -0.329006 0.24809 -3.52983 
92 2.17133 2.76218 2.55357 -3.37634 -3.55689 -3.05086 -0.416352 -0.335273 0.240187 -3.52983 
93 2.29128 4.92679 1.27596 -2.72837 -3.57417 -2.73146 -0.346159 -0.805245 0.0123112 -3.53335 
94 4.288 3.33543 1.2776 -3.4018 -2.90198 -2.72833 -0.498796 -0.212836 0.760403 -3.53335 
95 0.162265 4.327 2.55279 -3.38574 -4.74719 -3.29785 -0.0592949 -0.932618 0.0198769 -3.53365 
96 0.109142 4.3288 5.10582 -3.37757 -4.74738 -3.28889 -0.0443775 -0.931121 0.00141026 -3.53366 
97 0.205591 6.50006 3.82842 -2.76466 -4.35012 -2.85839 -0.0612436 -1.3588 0.0229659 -3.53382 
98 2.23073 4.9543 3.829 -2.71265 -3.58257 -2.72731 -0.336692 -0.806761 -0.00370069 -3.53335 
99 0.126075 6.50211 6.38123 -2.75791 -4.35289 -2.8481 -0.0426066 -1.35609 -0.00359784 -3.53383 
100 4.24672 3.3873 3.83068 -3.38477 -2.91488 -2.72312 -0.505254 -0.227518 0.75386 -3.53336 
101 2.13715 2.78843 5.10681 -3.36169 -3.56659 -3.04297 -0.41477 -0.340678 0.232351 -3.52983 
102 2.10266 2.81421 7.66027 -3.34839 -3.5778 -3.02757 -0.411173 -0.345355 0.224402 -3.52983 
103 2.16987 4.98096 6.3822 -2.69993 -3.59261 -2.71673 -0.32511 -0.80724 -0.0198212 -3.53336 
104 4.20478 3.43856 6.38393 -3.36942 -2.93052 -2.71167 -0.509376 -0.241725 0.747075 -3.53336 
105 0.0560988 4.32994 7.65906 -3.37347 -4.74734 -3.27298 -0.0288582 -0.928056 -0.0177949 -3.53368 
106 0.00321571 4.33039 10.2126 -3.37518 -4.74719 -3.24918 -0.012621 -0.924015 -0.03812 -3.53369 
107 0.0467543 6.50312 8.93431 -2.75843 -4.35726 -2.83247 -0.0232652 -1.35272 -0.0312824 -3.53383 
108 2.10878 5.00673 8.93568 -2.69165 -3.60445 -2.6989 -0.311088 -0.807138 -0.0365075 -3.53336 
109 -0.0322915 6.50306 11.4878 -2.76781 -4.3635 -2.81076 -0.00343635 -1.34953 -0.0606746 -3.53382 
110 4.16222 3.48918 8.93746 -3.35659 -2.94924 -2.69314 -0.510674 -0.255835 0.739864 -3.53336 
111 2.06792 2.83947 10.2141 -3.33739 -3.59065 -3.00335 -0.405057 -0.34965 0.216099 -3.52983 
112 2.03296 2.86418 12.7685 -3.32963 -3.60503 -2.96864 -0.396045 -0.354112 0.20709 -3.52982 
113 2.04753 5.03159 11.4896 -2.68922 -3.61808 -2.67269 -0.29447 -0.807135 -0.0543654 -3.53336 
114 4.11908 3.53911 11.4914 -3.34718 -2.97122 -2.66632 -0.508727 -0.270397 0.731965 -3.53336 
115 -0.0494428 4.33014 12.7668 -3.38419 -4.74681 -3.21618 0.00423217 -0.91974 -0.0599863 -3.5337 
116 -0.101835 4.32917 15.3217 -3.40144 -4.74576 -3.17223 0.0213758 -0.915886 -0.0839044 -3.53371 
117 -0.111014 6.50191 14.0419 -2.78695 -4.37164 -2.78184 0.0165113 -1.34725 -0.0924497 -3.5338 
118 1.98616 5.05551 14.0442 -2.69373 -3.6332 -2.63666 -0.275269 -0.808014 -0.0741495 -3.53336 
119 -0.189396 6.49966 16.5968 -2.8161 -4.38136 -2.74396 0.036132 -1.34628 -0.127376 -3.53376 
120 4.0754 3.58832 14.046 -3.34197 -2.99651 -2.62963 -0.503203 -0.286122 0.722978 -3.53336 
121 1.99782 2.88833 15.3237 -3.32582 -3.62044 -2.92134 -0.383933 -0.359431 0.196894 -3.52981 
122 1.96252 2.91188 17.8799 -3.32619 -3.63592 -2.85887 -0.368663 -0.366343 0.184914 -3.52979 
123 1.92468 5.07844 16.5996 -2.70578 -3.6492 -2.5889 -0.25361 -0.810538 -0.096725 -3.53335 
124 4.03118 3.63678 16.6015 -3.3414 -3.02486 -2.58108 -0.493858 -0.303833 0.712339 -3.53336 
125 -0.153943 4.32747 17.8776 -3.42713 -4.74306 -3.11486 0.0383155 -0.912869 -0.110473 -3.53371 
126 -0.205768 4.32504 20.4348 -3.46063 -4.73699 -3.04078 0.0544593 -0.910806 -0.140296 -3.5337 
127 -0.26744 6.49629 19.1527 -2.85489 -4.39182 -2.69457 0.0549764 -1.34667 -0.166265 -3.53371 
128 1.86309 5.10038 19.1561 -2.7254 -3.66506 -2.52699 -0.22967 -0.815361 -0.122987 -3.53334 
129 -0.345158 6.49181 21.7099 -2.90237 -4.40135 -2.63011 0.0726432 -1.3481 -0.209818 -3.53364 
130 3.98642 3.68447 19.158 -3.34544 -3.05569 -2.51821 -0.480501 -0.324391 0.699325 -3.53334 
131 1.92705 2.93483 20.4374 -3.33021 -3.64993 -2.77812 -0.350285 -0.375522 0.170496 -3.52976 
132 1.89142 2.95717 22.9967 -3.33622 -3.66003 -2.67547 -0.328945 -0.387453 0.153068 -3.52973 
133 1.8014 5.1213 21.7141 -2.7519 -3.67918 -2.44787 -0.203648 -0.822986 -0.153714 -3.53331 
134 3.94112 3.73134 21.716 -3.35336 -3.08788 -2.43815 -0.463014 -0.348591 0.683123 -3.53332 
135 -0.257326 4.32189 22.9936 -3.50019 -4.72469 -2.9458 0.0691714 -0.909543 -0.173782 -3.53369 
136 -0.308643 4.31809 25.5544 -3.54234 -4.70164 -2.82499 0.0817938 -0.908752 -0.210744 -3.5337 
137 -0.422567 6.48626 24.2687 -2.95668 -4.40697 -2.54586 0.0887911 -1.34997 -0.258324 -3.53357 
138 1.73958 5.14119 24.2738 -2.78357 -3.689 -2.34803 -0.175837 -0.833705 -0.189297 -3.53328 
139 -0.499681 6.47971 26.8296 -3.0143 -4.40368 -2.43605 0.103092 -1.35154 -0.311105 -3.53351 
140 3.89529 3.77738 24.2756 -3.36341 -3.11934 -2.33764 -0.441452 -0.376955 0.662998 -3.53329 
141 1.85561 2.97892 25.558 -3.34087 -3.66236 -2.54711 -0.304981 -0.402221 0.13242 -3.52968 
142 1.81964 3.00011 28.1218 -3.33817 -3.65092 -2.38971 -0.279141 -0.419117 0.109212 -3.52962 
143 1.67763 5.16011 26.8357 -2.81703 -3.69052 -2.22378 -0.146806 -0.847448 -0.229253 -3.53323 
144 3.84893 3.8226 26.8375 -3.37219 -3.14639 -2.21328 -0.416281 -0.409348 0.638648 -3.53324 
145 -0.359748 4.31371 28.1177 -3.5807 -4.661 -2.6734 0.0916608 -0.908047 -0.24978 -3.53373 
146 -0.410669 4.3089 30.684 -3.6044 -4.59322 -2.4877 0.0981836 -0.907037 -0.287571 -3.53381 
147 -0.576514 6.47235 29.393 -3.06868 -4.38349 -2.29449 0.115115 -1.35212 -0.365718 -3.53348 
148 1.61557 5.17816 29.4002 -2.84597 -3.67757 -2.07194 -0.11773 -0.863411 -0.271459 -3.53318 
149 -0.653077 6.46443 31.9595 -3.10834 -4.33453 -2.11637 0.124199 -1.35122 -0.417203 -3.5335 
150 3.80214 3.86706 29.4019 -3.37359 -3.16272 -2.062 -0.388731 -0.444294 0.610832 -3.53318 
151 1.78358 3.02085 30.6886 -3.31838 -3.61691 -2.20175 -0.252906 -0.436086 0.085703 -3.52957 
152 1.74754 3.04133 33.2587 -3.26783 -3.54916 -1.9854 -0.228653 -0.449466 0.0661429 -3.52956 
153 1.55348 5.19556 31.9678 -2.85959 -3.64115 -1.89103 -0.0907115 -0.87936 -0.311277 -3.53312 
154 3.75508 3.91089 31.9693 -3.35739 -3.15832 -1.88193 -0.361102 -0.47813 0.582235 -3.53311 
155 -0.461417 4.30389 33.2536 -3.59726 -4.48693 -2.26905 0.101128 -0.905189 -0.318925 -3.53397 
156 -0.511965 4.2989 35.8266 -3.5412 -4.33319 -2.02614 0.101082 -0.901534 -0.339259 -3.53423 
157 -0.729364 6.45635 34.5294 -3.11537 -4.24126 -1.90201 0.129534 -1.34827 -0.45846 -3.53363 
158 1.4915 5.21268 34.5386 -2.84144 -3.56918 -1.68279 -0.0686834 -0.890976 -0.341647 -3.53309 
159 -0.805317 6.44849 37.103 -3.06824 -4.08899 -1.66158 0.130835 -1.34191 -0.48376 -3.53389 
160 3.70805 3.95433 34.54 -3.30821 -3.11917 -1.67428 -0.33658 -0.50493 0.557862 -3.53308 
161 1.7117 3.06174 35.832 -3.17229 -3.43763 -1.74791 -0.209042 -0.455282 0.0551119 -3.52962 
162 1.67619 3.0822 38.4085 -3.02598 -3.28049 -1.50007 -0.195181 -0.453043 0.0522956 -3.52978 
163 1.42989 5.2299 37.1129 -2.77232 -3.44888 -1.45412 -0.0543055 -0.892896 -0.35655 -3.53314 
164 3.66142 3.99768 37.1141 -3.20769 -3.03095 -1.4457 -0.317961 -0.519192 0.54292 -3.53313 
165 -0.562238 4.29398 38.4028 -3.42713 -4.13434 -1.77421 0.0997339 -0.894815 -0.350048 -3.53458 
166 -0.612147 4.28897 40.9816 -3.26246 -3.90644 -1.5257 0.0993275 -0.88443 -0.360237 -3.53492 
167 -0.880809 6.44093 39.6798 -2.95513 -3.8773 -1.41506 0.129373 -1.33033 -0.496139 -3.53425 
168 1.36885 5.24742 39.6902 -2.64153 -3.27558 -1.21692 -0.0479415 -0.883754 -0.35917 -3.53331 
169 -0.955735 6.4334 42.259 -2.78437 -3.62638 -1.1803 0.127883 -1.31342 -0.508317 -3.53461 
170 3.61542 4.04109 39.6913 -3.04547 -2.8886 -1.20861 -0.305639 -0.522042 0.536063 -3.5333 
171 1.64104 3.10262 40.9876 -2.83718 -3.08668 -1.24966 -0.185378 -0.447915 0.0497534 -3.53 
172 1.60614 3.12288 43.5687 -2.61584 -2.86435 -0.994387 -0.177099 -0.446376 0.0392474 -3.53027 
173 1.30846 5.26509 42.2698 -2.45546 -3.05848 -0.981327 -0.0467539 -0.869974 -0.363858 -3.53355 
174 3.57001 4.08447 42.2709 -2.82889 -2.7006 -0.974798 -0.297421 -0.523223 0.52647 -3.53354 
175 -0.661675 4.28369 43.5624 -3.05835 -3.66003 -1.28021 0.101044 -0.871174 -0.378163 -3.53523 
176 -0.710993 4.27811 46.1447 -2.82677 -3.3934 -1.01801 0.104119 -0.857228 -0.4091 -3.53549 
177 -1.03015 6.42571 44.8395 -2.56306 -3.34341 -0.964229 0.12779 -1.29347 -0.525468 -3.53495 
178 1.24856 5.28277 44.851 -2.22138 -2.80256 -0.748921 -0.0489761 -0.85998 -0.382049 -3.53386 
179 -1.10443 6.41817 47.4204 -2.29845 -3.01766 -0.779253 0.130002 -1.27508 -0.537614 -3.53528 
180 3.52497 4.12776 44.852 -2.5633 -2.47452 -0.75003 -0.290652 -0.531598 0.505629 -3.53383 
181 1.57129 3.14295 46.1516 -2.36653 -2.61633 -0.716765 -0.16996 -0.455925 0.0125959 -3.53054 
182 1.53636 3.16327 48.7364 -2.09018 -2.36101 -0.346024 -0.182732 -0.478804 -0.0259261 -3.53015 
183 1.1887 5.30046 47.4331 -1.94583 -2.5056 -0.518027 -0.0628643 -0.866553 -0.426582 -3.53411 
184 3.48005 4.171 47.4338 -2.24251 -2.22062 -0.541941 -0.285325 -0.557944 0.462269 -3.53403 
185 -0.76061 4.27328 48.7285 -2.60409 -3.07515 -0.672052 0.0974575 -0.849641 -0.413232 -3.53515 
186 -0.811621 4.26877 51.3169 -1.98848 -2.35116 0.310513 0.0838835 -0.84171 -0.653436 -3.53805 
187 -1.17889 6.41384 50.0002 -2.05966 -2.54263 -0.336543 0.0873563 -1.28001 -0.61673 -3.53572 
188 1.12775 5.31799 50.0156 -1.56907 -2.0788 -0.0206343 -0.110957 -0.945824 -0.595132 -3.53485 
189 -1.25707 6.40546 52.5877 -1.61235 -2.48689 0.643293 0.175759 -1.31617 -0.613146 -3.53282 
190 3.43505 4.21346 50.0156 -1.75825 -1.85272 -0.0377791 -0.309223 -0.668242 0.314299 -3.53491 
191 1.50027 3.18358 51.3264 -1.43157 -1.70132 0.65862 -0.172626 -0.548366 -0.133358 -3.53273 
192 1.46587 3.20964 53.9052 0.0267041 0.953995 -0.795861 0.566309 -0.560982 0.138975 -3.37565 
193 1.06597 5.33731 52.6041 -1.24921 -1.89855 0.441475 -0.23697 -0.801327 -0.410827 -3.52779 
194 3.38747 4.26008 52.6041 -1.41016 -1.71356 0.389824 -0.390658 -0.639447 0.587318 -3.52746 
195 -0.866323 4.2769 53.8949 -0.050871 -0.206135 -1.18049 0.0793773 -1.26166 1.02744 -3.38132 
196 1.3298 4.1174 -56.3442 5.06942 2.90559 1.60242 -1.25473 -0.273892 0.110264 -2.79034 
197 -1.33605 6.40133 55.1665 4.18005 2.79745 1.28995 0.319922 -1.5232 0.19788 -3.26107 
198 1.00488 5.36129 55.1754 5.64208 6.63186 2.70774 0.369862 -0.636459 -0.0326173 -3.15047 
199 1.98371 6.26223 -55.1334 6.93988 9.11553 2.92917 0.134187 -0.847907 -0.525657 -3.02309 
200 3.34328 4.30996 55.1754 5.53065 7.35767 2.86911 0.118704 -0.278626 0.562636 -3.15115 
201 2.87095 2.09325 -56.362 4.04253 6.0065 1.88101 -3.16453 0.252644 0.34179 -2.79939 
202 2.84551 2.1252 -53.8874 0.165015 0.7633 -3.02646 -0.98211 -0.732816 -0.162365 -3.51266 
203 3.53831 4.21674 -55.1525 6.03166 6.27391 1.75937 0.302437 -1.21951 -0.0444717 -3.1433 
204 5.07312 2.13635 -55.1525 6.04997 7.03887 2.00315 0.446065 -0.528119 0.0805368 -3.14511 
205 1.29262 4.16451 -53.8815 0.861269 -0.348238 -3.67504 -0.408878 -0.573881 0.839002 -3.51412 
206 1.24176 4.17585 -51.3147 -1.28678 -1.91097 -0.373724 -0.214932 -0.880561 0.22015 -3.53903 
207 1.90264 6.26187 -52.5941 -0.917833 -1.4568 -0.573021 -0.184179 -1.16803 0.820001 -3.52792 
208 3.4607 4.22944 -52.6036 -0.748872 -0.925831 0.095452 -0.677535 -0.496069 0.191366 -3.53019 
209 1.82403 6.27282 -50.0101 -1.64261 -2.32539 -0.262311 -0.200446 -1.28167 0.432915 -3.53673 
210 5.01221 2.17771 -52.6036 -1.34184 -0.348564 0.0546272 -0.502575 0.0191982 0.991504 -3.52952 
211 2.80522 2.14769 -51.32 -1.10366 -0.946846 -0.112626 -0.278077 -0.333006 0.261784 -3.53414 
212 2.77226 2.17461 -48.7405 -1.96845 -1.83658 -0.545376 -0.291601 -0.223751 0.337875 -3.53087 
213 3.40036 4.25787 -50.02 -1.43131 -1.65379 -0.138844 -0.408365 -0.708847 0.286278 -3.53497 
214 4.971 2.23184 -50.02 -1.84405 -1.27391 -0.113597 -0.296363 0.0208622 0.835918 -3.535 
215 1.18965 4.18042 -48.7355 -2.17783 -2.75556 -0.785678 -0.180385 -0.850187 0.28396 -3.5364 
216 1.13971 4.1865 -46.154 -2.63687 -3.19121 -0.973732 -0.165172 -0.833725 0.401973 -3.53604 
217 1.74857 6.27864 -47.4305 -2.10021 -2.83287 -0.67328 -0.213695 -1.24124 0.546201 -3.53588 
218 3.345 4.28749 -47.4411 -1.89793 -2.20787 -0.561346 -0.301204 -0.639401 0.335809 -3.53414 
219 1.67463 6.29042 -44.8494 -2.46956 -3.19101 -0.861714 -0.201022 -1.24478 0.604509 -3.53533 
220 4.9348 2.28445 -47.4403 -2.32163 -1.78823 -0.540617 -0.212356 0.105707 0.864874 -3.53419 
221 2.74197 2.20189 -46.1593 -2.36426 -2.26786 -0.738589 -0.231988 -0.161543 0.39253 -3.53074 
222 2.71358 2.23052 -43.5775 -2.67653 -2.59077 -0.950054 -0.21616 -0.150147 0.412666 -3.53037 
223 3.29147 4.31966 -44.8604 -2.23368 -2.57309 -0.716632 -0.260841 -0.625336 0.371104 -3.53392 
224 4.90188 2.3375 -44.8595 -2.65679 -2.14342 -0.721873 -0.178325 0.143157 0.896062 -3.53392 
225 1.09053 4.19502 -43.572 -2.97545 -3.51151 -1.20172 -0.152961 -0.841622 0.427189 -3.53553 
226 1.04126 4.20425 -40.9909 -3.23506 -3.78676 -1.44297 -0.151001 -0.854635 0.43353 -3.53509 
227 1.60089 6.3039 -42.2683 -2.75177 -3.49749 -1.08887 -0.200637 -1.26253 0.619905 -3.53483 
228 3.23887 4.3533 -42.2794 -2.50706 -2.86963 -0.916661 -0.244017 -0.627692 0.388622 -3.5336 
229 1.52669 6.31805 -39.6884 -2.96234 -3.76474 -1.33279 -0.207741 -1.2816 0.623345 -3.53438 
230 4.87049 2.39143 -42.2785 -2.94001 -2.42588 -0.927569 -0.167792 0.154813 0.920996 -3.5336 
231 2.68573 2.25987 -40.9963 -2.93243 -2.85221 -1.18046 -0.213724 -0.148172 0.426408 -3.53006 
232 2.65798 2.28981 -38.4167 -3.14589 -3.06714 -1.42291 -0.218749 -0.147376 0.437725 -3.52981 
233 3.18651 4.38798 -39.6994 -2.72426 -3.10971 -1.14062 -0.238778 -0.632592 0.398864 -3.53333 
234 4.83968 2.44632 -39.6985 -3.17682 -2.64389 -1.15146 -0.168559 0.159531 0.942484 -3.53333 
235 0.991612 4.21374 -38.4113 -3.43442 -4.03122 -1.69415 -0.156261 -0.866951 0.43443 -3.53468 
236 0.941532 4.22344 -35.8343 -3.57526 -4.24166 -1.94997 -0.165886 -0.876809 0.42893 -3.53431 
237 1.45185 6.3327 -37.1108 -3.10443 -3.98837 -1.58508 -0.218606 -1.29736 0.618075 -3.53398 
238 3.13412 4.42361 -37.1215 -2.88568 -3.2934 -1.37472 -0.242281 -0.638903 0.400963 -3.53314 
239 1.37645 6.34787 -34.5362 -3.17907 -4.15736 -1.83208 -0.228982 -1.30937 0.599113 -3.53367 
240 4.80917 2.50218 -37.1205 -3.36428 -2.80036 -1.38425 -0.178901 0.159183 0.956198 -3.53314 
241 2.63023 2.3203 -35.8394 -3.31593 -3.236 -1.66964 -0.230671 -0.149191 0.443388 -3.52963 
242 2.60245 2.35126 -33.2649 -3.43802 -3.3567 -1.91028 -0.249276 -0.156977 0.439547 -3.52955 
243 3.08165 4.46005 -34.5463 -2.98921 -3.41943 -1.60531 -0.253848 -0.649914 0.389683 -3.53306 
244 4.77888 2.55887 -34.5453 -3.49715 -2.89738 -1.6139 -0.198954 0.148799 0.957119 -3.53306 
245 0.891096 4.23336 -33.2603 -3.6571 -4.40916 -2.19902 -0.176514 -0.884479 0.41294 -3.53401 
246 0.840376 4.2434 -30.6897 -3.68747 -4.531 -2.42774 -0.185146 -0.890815 0.385392 -3.5338 
247 1.3006 6.3634 -31.9652 -3.19634 -4.26975 -2.05756 -0.235827 -1.31873 0.564111 -3.53349 
248 3.02897 4.49703 -31.9745 -3.03969 -3.49507 -1.81973 -0.271793 -0.666617 0.36386 -3.53307 
249 1.22436 6.37897 -29.3977 -3.17418 -4.33528 -2.25049 -0.23812 -1.32606 0.51661 -3.53342 
250 4.74864 2.61614 -31.9733 -3.57792 -2.94439 -1.82819 -0.227164 0.12595 0.945144 -3.53306 
251 2.57457 2.38252 -30.6937 -3.51364 -3.43351 -2.13358 -0.272785 -0.171394 0.425986 -3.52954 
252 2.54644 2.41384 -28.1258 -3.55135 -3.47698 -2.33109 -0.298275 -0.190089 0.406037 -3.52957 
253 2.97594 4.53414 -29.4059 -3.0496 -3.53438 -2.00966 -0.293133 -0.686629 0.327975 -3.53312 
254 4.71817 2.67365 -29.4046 -3.61706 -2.95674 -2.0185 -0.260157 0.0934171 0.92473 -3.5331 
255 0.789415 4.25337 -28.1224 -3.68109 -4.61309 -2.62647 -0.190004 -0.896285 0.349439 -3.53368 
256 0.738222 4.26303 -25.5582 -3.65318 -4.66517 -2.79166 -0.190555 -0.900949 0.309704 -3.53362 
257 1.14775 6.39418 -26.8335 -3.13014 -4.36772 -2.40754 -0.236044 -1.33144 0.462717 -3.53342 
258 2.92237 4.57099 -26.8405 -3.03315 -3.55112 -2.17177 -0.314633 -0.706951 0.288009 -3.53318 
259 1.07079 6.40871 -24.272 -3.07744 -4.37946 -2.53101 -0.230114 -1.33512 0.407857 -3.53347 
260 4.68717 2.73111 -26.8391 -3.627 -2.94913 -2.18083 -0.294308 0.056107 0.900872 -3.53316 
261 2.51793 2.44502 -25.561 -3.5622 -3.4987 -2.49888 -0.323008 -0.210096 0.383658 -3.52962 
262 2.48894 2.47592 -22.9988 -3.5561 -3.50809 -2.63687 -0.345161 -0.22928 0.36169 -3.52967 
263 2.86818 4.60731 -24.2778 -3.00221 -3.55553 -2.30616 -0.333773 -0.725519 0.248476 -3.53323 
264 4.65541 2.78834 -24.2763 -3.61848 -2.93249 -2.31489 -0.326964 0.0183131 0.877127 -3.53321 
265 0.686804 4.27221 -22.9967 -3.61549 -4.69671 -2.92451 -0.187051 -0.904831 0.270007 -3.5336 
266 0.635167 4.28079 -20.4373 -3.57581 -4.71521 -3.02879 -0.18011 -0.90808 0.232672 -3.5336 
267 0.993492 6.42234 -21.7127 -3.02459 -4.3797 -2.62582 -0.220905 -1.33763 0.355538 -3.53353 
268 2.81331 4.64292 -21.7174 -2.96519 -3.55432 -2.41499 -0.349122 -0.741403 0.211861 -3.53327 
269 0.915879 6.43495 -19.1551 -2.97631 -4.37453 -2.69744 -0.209033 -1.33961 0.307469 -3.53359 
270 4.62277 2.84519 -21.7158 -3.59955 -2.9139 -2.42283 -0.356664 -0.0172521 0.855478 -3.53325 
271 2.45943 2.50645 -20.4388 -3.54052 -3.51159 -2.74748 -0.363864 -0.246553 0.34163 -3.52971 
272 2.42938 2.53657 -17.8807 -3.52054 -3.51312 -2.83432 -0.378941 -0.26162 0.324004 -3.52975 
273 2.75775 4.67773 -19.159 -2.92742 -3.55149 -2.50138 -0.360205 -0.754506 0.179109 -3.5333 
274 4.58918 2.90162 -19.1573 -3.57566 -2.89738 -2.50799 -0.382858 -0.0493485 0.836744 -3.53328 
275 0.583326 4.2887 -17.8797 -3.53859 -4.72597 -3.10914 -0.170457 -0.910961 0.198737 -3.5336 
276 0.531293 4.29592 -15.3234 -3.50601 -4.73239 -3.17007 -0.15879 -0.913777 0.168388 -3.53361 
277 0.837968 6.44648 -16.599 -2.93468 -4.36767 -2.75088 -0.19514 -1.34161 0.264108 -3.53365 
278 2.70151 4.71172 -16.602 -2.89188 -3.54921 -2.56877 -0.367178 -0.765196 0.150238 -3.53332 
279 0.759772 6.45691 -14.0439 -2.90002 -4.36112 -2.79027 -0.179843 -1.34404 0.225203 -3.53369 
280 4.55463 2.95757 -16.6003 -3.55022 -2.88485 -2.57402 -0.405562 -0.0777558 0.821027 -3.53331 
281 2.3988 2.56626 -15.324 -3.49929 -3.51482 -2.90128 -0.390634 -0.274658 0.308776 -3.52977 
282 2.36772 2.59552 -12.7685 -3.47851 -3.51765 -2.95201 -0.399396 -0.286054 0.295635 -3.52979 
283 2.64464 4.74487 -14.0462 -2.85993 -3.54844 -2.62048 -0.370546 -0.774017 0.124799 -3.53333 
284 4.51915 3.01303 -14.0446 -3.52518 -2.87692 -2.62442 -0.425097 -0.102826 0.808034 -3.53332 
285 0.479076 4.30242 -12.7682 -3.4787 -4.73656 -3.21554 -0.145728 -0.916786 0.141358 -3.53362 
286 0.426678 4.30822 -10.2137 -3.4563 -4.73958 -3.24878 -0.13179 -0.920127 0.117174 -3.53362 
287 0.681297 6.46624 -11.4897 -2.87155 -4.35582 -2.81886 -0.163684 -1.34708 0.190171 -3.53373 
288 2.58714 4.77719 -11.4914 -2.83181 -3.54946 -2.65947 -0.370949 -0.781493 0.102176 -3.53334 
289 0.602545 6.47448 -8.93596 -2.84786 -4.35203 -2.8391 -0.147085 -1.35063 0.158314 -3.53375 
290 4.48275 3.06801 -11.4897 -3.50145 -2.87339 -2.66219 -0.44192 -0.12515 0.797293 -3.53333 
291 2.33614 2.62435 -10.2138 -3.45896 -3.52184 -2.98969 -0.405762 -0.296224 0.284179 -3.5298 
292 2.30408 2.65276 -7.65973 -3.44079 -3.52725 -3.01688 -0.410266 -0.305492 0.274014 -3.52981 
293 2.52905 4.8087 -8.9372 -2.80711 -3.5521 -2.68822 -0.369033 -0.788003 0.0817421 -3.53334 
294 4.44547 3.1225 -8.93556 -3.47927 -2.8737 -2.68979 -0.456514 -0.145335 0.788277 -3.53334 
295 0.374101 4.31331 -7.65985 -3.4379 -4.74201 -3.27236 -0.117392 -0.923739 0.0953006 -3.53362 
296 0.321347 4.31772 -5.10638 -3.42236 -4.744 -3.28813 -0.102846 -0.927326 0.0751851 -3.53363 
297 0.523524 6.48165 -6.38269 -2.82741 -4.34964 -2.85279 -0.130316 -1.35432 0.12893 -3.53377 
298 2.47038 4.83941 -6.38352 -2.78506 -3.55607 -2.70868 -0.365347 -0.793717 0.0629459 -3.53334 
299 0.444255 6.48778 -3.82972 -2.80892 -4.3484 -2.8611 -0.113474 -1.35756 0.101335 -3.53378 
300 4.40732 3.1765 -6.3819 -3.45848 -2.87716 -2.7091 -0.469306 -0.16389 0.780484 -3.53334 
301 2.27155 2.68074 -5.1061 -3.42375 -3.53359 -3.03554 -0.413368 -0.314039 0.264793 -3.52982 
302 2.23857 2.70831 -2.55276 -3.40749 -3.54063 -3.04703 -0.415388 -0.321898 0.256229 -3.52982 
303 2.41117 4.86933 -3.83019 -2.76485 -3.5611 -2.72223 -0.360261 -0.798607 0.045338 -3.53334 
304 4.36834 3.23 -3.82857 -3.43878 -2.8832 -2.72147 -0.48059 -0.181181 0.77347 -3.53335 
305 0.268431 4.32147 -2.5532 -3.40871 -4.74555 -3.29732 -0.0883291 -0.930383 0.0562715 -3.53363 
306 0.364788 6.49289 -1.27695 -2.79185 -4.34808 -2.8647 -0.0964865 -1.35966 0.0748782 -3.5338 
307 2.35145 4.89846 -1.27707 -2.74597 -3.5671 -2.72972 -0.353907 -0.802509 0.0285599 -3.53335 
308 4.32855 3.28299 -1.27545 -3.4199 -2.89149 -2.72776 -0.490464 -0.197443 0.76687 -3.53335 
309 2.43635 7.09067 -0.000768625 -2.22105 -3.36373 -2.40266 -0.31768 -1.20924 -0.188493 -3.53289 
310 0.434614 8.66784 -0.000972529 -2.25231 -4.02064 -2.49708 -0.100084 -1.74663 0.082815 -3.53355 