ITEM: TIMESTEP
0
ITEM: NUMBER OF ATOMS
37664
ITEM: BOX BOUNDS ff ff ff
-100 100
-100 100
-156.15 156.15
ITEM: ATOMS id x y z v_peratom_sxx v_peratom_syy v_peratom_szz v_peratom_sxy v_peratom_sxz v_peratom_syz c_atomPE 
1 -0.00391499 -0.00204549 0.000947087 -5.17827 -5.1698 -9.53933 0.000920562 -0.0134286 -0.0366575 -3.51526 
2 -0.00411847 -0.00179757 2.55416 -5.17753 -5.16911 -9.53778 0.000192617 -0.014256 -0.0359658 -3.51527 
3 -0.00433461 -0.00150825 5.10745 -5.17234 -5.16437 -9.5264 -0.000766133 -0.0136415 -0.0352294 -3.51532 
4 -0.00455703 -0.00118369 7.66096 -5.16191 -5.155 -9.50379 -0.00194393 -0.0111276 -0.0345447 -3.51542 
5 -0.00476953 -0.000838241 10.2148 -5.14528 -5.14013 -9.46797 -0.00325244 -0.00659834 -0.0338713 -3.51558 
6 -0.00494844 -0.000490875 12.7693 -5.12137 -5.11863 -9.41637 -0.0045429 -0.000364549 -0.0330341 -3.51581 
7 -0.00506783 -0.000160106 15.3246 -5.08883 -5.0889 -9.34585 -0.00565255 0.00689796 -0.0318034 -3.51614 
8 -0.00510565 0.000140163 17.8809 -5.0458 -5.04875 -9.25257 -0.00645473 0.0143305 -0.0300027 -3.51657 
9 -0.00504851 0.000402386 20.4386 -4.98953 -4.99514 -9.13182 -0.00688892 0.0211058 -0.027589 -3.51712 
10 -0.00489383 0.000624597 22.9981 -4.91612 -4.92391 -8.97809 -0.00696478 0.0265963 -0.0246795 -3.51781 
11 -0.00464901 0.00080801 25.5598 -4.82028 -4.82963 -8.78571 -0.00674677 0.0304626 -0.021529 -3.51867 
12 -0.00432863 0.000954199 28.1242 -4.69565 -4.70591 -8.55048 -0.00632949 0.0326612 -0.0184694 -3.5197 
13 -0.00395052 0.00106294 30.6916 -4.53626 -4.54686 -8.27277 -0.00581136 0.0333923 -0.0158292 -3.5209 
14 -0.00353174 0.00113135 33.2622 -4.34039 -4.35088 -7.96128 -0.00527264 0.0330119 -0.0138538 -3.52219 
15 -0.00308543 0.00115421 35.8361 -4.11578 -4.12584 -7.63343 -0.00476272 0.0319368 -0.0126585 -3.52346 
16 -0.00261905 0.0011247 38.4127 -3.8784 -3.88782 -7.30754 -0.00429829 0.0305581 -0.0122323 -3.52457 
17 -0.00213365 0.00103467 40.9919 -3.63981 -3.64845 -6.99002 -0.00386708 0.0291875 -0.0124924 -3.52546 
18 -0.0016216 0.000873356 43.5732 -3.401 -3.40872 -6.66809 -0.00342626 0.0281132 -0.0133628 -3.52619 
19 -0.00106269 0.000624821 46.157 -3.13691 -3.14337 -6.3049 -0.00286993 0.0276071 -0.0147942 -3.52693 
20 -0.000430417 0.000264096 48.7436 -2.7539 -2.75747 -5.86487 -0.00160208 0.027195 -0.0166839 -3.52781 
21 5.95933e-07 -4.11185e-08 51.3317 -1.92317 -1.9229 -4.92078 0.000129538 -0.00139055 0.00087243 -3.53204 
22 4.01304e-07 -1.42881e-06 53.9138 -0.851924 -0.851935 -8.91781 -2.74877e-08 -2.82515e-05 -7.19102e-05 -3.48169 
23 8.71386e-07 -1.98378e-06 56.3885 1.68559 1.68559 1.87686 -1.62663e-05 2.47926e-05 -2.86896e-07 -2.55581 
24 -1.23087e-07 -1.12453e-06 -53.8876 -2.60693 -2.60695 -6.54959 -1.66618e-05 8.76817e-06 -3.29152e-05 -3.40183 
25 1.02659e-07 -1.55837e-06 -51.3239 -2.07922 -2.0793 -5.57966 -0.000386885 0.00092793 0.00212758 -3.52873 
26 -0.000240169 -0.000604479 -48.7462 -2.69461 -2.69285 -6.14838 0.00516988 -0.0151636 -0.0377875 -3.52639 
27 -0.000550774 -0.00144997 -46.1646 -3.02166 -3.0183 -6.34855 0.00916244 -0.0129064 -0.0351294 -3.52678 
28 -0.00077 -0.00208901 -43.5822 -3.30331 -3.29816 -6.60886 0.0102343 -0.00914467 -0.0330178 -3.52634 
29 -0.000907653 -0.00257288 -41.0008 -3.55902 -3.55173 -6.89702 0.0104229 -0.00529158 -0.0314925 -3.52574 
30 -0.000990784 -0.00293186 -38.421 -3.80957 -3.80007 -7.20551 0.0100386 -0.00170082 -0.0303493 -3.52491 
31 -0.00104779 -0.00318437 -35.8434 -4.05619 -4.04467 -7.5303 0.00922428 0.00126929 -0.029482 -3.52385 
32 -0.001107 -0.00334494 -33.2686 -4.28945 -4.27635 -7.86031 0.00812279 0.00326078 -0.0289106 -3.52262 
33 -0.00119372 -0.00342815 -30.6968 -4.49628 -4.48221 -8.17796 0.00690663 0.00404571 -0.0287085 -3.52133 
34 -0.00132602 -0.00344892 -28.1283 -4.66813 -4.65379 -8.46618 0.0057507 0.00362781 -0.0289337 -3.52011 
35 -0.00151142 -0.0034213 -25.5628 -4.80405 -4.79005 -8.71448 0.00478775 0.00226341 -0.0295805 -3.51903 
36 -0.00174604 -0.00335704 -23.0001 -4.90809 -4.8949 -8.91993 0.0040765 0.000382993 -0.0305659 -3.51811 
37 -0.00201656 -0.00326514 -20.4397 -4.98617 -4.97402 -9.08494 0.0035981 -0.00156019 -0.0317614 -3.51737 
38 -0.00230442 -0.00315249 -17.8812 -5.0441 -5.03304 -9.21454 0.00328068 -0.00324505 -0.0330363 -3.51678 
39 -0.0025908 -0.0030249 -15.3243 -5.08678 -5.07671 -9.31447 0.00303777 -0.00457597 -0.0342843 -3.51632 
40 -0.00286098 -0.00288748 -12.7685 -5.11803 -5.10876 -9.39016 0.00280158 -0.00567824 -0.0354198 -3.51597 
41 -0.00310693 -0.00274375 -10.2137 -5.14073 -5.13201 -9.44632 0.00253687 -0.00680246 -0.0363575 -3.51571 
42 -0.00332793 -0.002594 -7.65947 -5.15694 -5.14854 -9.48678 0.00223316 -0.0081811 -0.0370037 -3.51552 
43 -0.00352956 -0.00243389 -5.10574 -5.16809 -5.15979 -9.51454 0.0018834 -0.00989299 -0.0372749 -3.51539 
44 -0.00372158 -0.00225466 -2.55231 -5.17509 -5.16671 -9.53167 0.00146279 -0.0117785 -0.0371406 -3.5153 
45 0.0922829 2.15814 1.27649 -4.05337 -5.13712 -3.83745 -0.0507736 -0.449969 -0.000513238 -3.52907 
46 0.0657485 2.1594 3.82965 -4.04836 -5.13681 -3.83126 -0.0396669 -0.449957 -0.00997401 -3.52909 
47 0.039214 2.16035 6.38296 -4.0442 -5.13431 -3.81669 -0.0285302 -0.448618 -0.0198578 -3.52911 
48 0.01272 2.16099 8.93657 -4.04151 -5.12939 -3.79254 -0.0171539 -0.445992 -0.0303895 -3.52914 
49 -0.013689 2.16128 11.4907 -4.04115 -5.12161 -3.75725 -0.00538524 -0.442424 -0.0417327 -3.52918 
50 -0.0399723 2.16121 14.0454 -4.04393 -5.11019 -3.70878 0.00675706 -0.438437 -0.05406 -3.52922 
51 -0.0660999 2.16077 16.6011 -4.05024 -5.09385 -3.64453 0.0190274 -0.434565 -0.0676195 -3.52928 
52 -0.0920563 2.15996 19.1581 -4.05972 -5.07061 -3.5612 0.0309661 -0.431211 -0.0827482 -3.52934 
53 -0.11784 2.15877 21.7166 -4.07087 -5.03753 -3.45467 0.041955 -0.428578 -0.099793 -3.52942 
54 -0.143463 2.15723 24.277 -4.08054 -4.99034 -3.32033 0.0512932 -0.426661 -0.118896 -3.52953 
55 -0.168942 2.15538 26.8398 -4.08303 -4.92304 -3.15377 0.058301 -0.425281 -0.139589 -3.52967 
56 -0.194298 2.15327 29.4054 -4.06898 -4.82792 -2.95248 0.0624936 -0.424131 -0.160234 -3.52986 
57 -0.219546 2.151 31.9742 -4.02523 -4.69688 -2.71852 0.0638652 -0.422813 -0.177713 -3.53012 
58 -0.244681 2.14866 34.5463 -3.93806 -4.52552 -2.46083 0.0632037 -0.420847 -0.188555 -3.53047 
59 -0.269672 2.14629 37.1216 -3.80201 -4.31924 -2.19358 0.0620524 -0.417693 -0.192505 -3.53087 
60 -0.294473 2.14381 39.6996 -3.62546 -4.09271 -1.92818 0.0619646 -0.412931 -0.194624 -3.53128 
61 -0.319055 2.14113 42.2798 -3.42038 -3.85663 -1.66489 0.0636428 -0.406704 -0.20104 -3.53164 
62 -0.34345 2.13816 44.8621 -3.19341 -3.60783 -1.39217 0.0663269 -0.399597 -0.218415 -3.53193 
63 -0.367813 2.13511 47.4464 -2.91506 -3.29627 -1.10669 0.0667105 -0.39394 -0.238763 -3.53223 
64 -0.392512 2.13371 50.032 -2.43249 -2.8015 -0.493653 0.0610086 -0.413266 -0.205418 -3.53324 
65 -0.418483 2.1304 52.6263 -1.76578 -2.00551 -0.56141 0.0454939 -0.308946 -0.729967 -3.52457 
66 -0.44812 2.14653 55.1778 6.9766 7.73843 2.43089 0.0330177 -0.597321 1.77021 -3.02528 
67 0.649859 2.05055 -55.162 1.38945 0.842392 -0.678355 -0.188252 -0.0991976 1.20762 -3.26036 
68 0.633027 2.08274 -52.6122 -1.11197 -2.2187 -0.457712 -0.37449 -0.489289 -0.161419 -3.53566 
69 0.607028 2.08678 -50.0319 -2.00563 -2.55594 -0.875854 -0.169257 -0.429815 0.0761799 -3.53397 
70 0.581265 2.08803 -47.4533 -2.63819 -3.07265 -1.21047 -0.124981 -0.403498 0.14721 -3.5329 
71 0.55642 2.09137 -44.8713 -3.06006 -3.44228 -1.36867 -0.103435 -0.397749 0.191835 -3.53225 
72 0.531776 2.09554 -42.2894 -3.35949 -3.7278 -1.59699 -0.0941573 -0.40142 0.204104 -3.53182 
73 0.507034 2.09995 -39.7087 -3.60365 -3.98372 -1.8472 -0.0925002 -0.406831 0.210531 -3.53141 
74 0.482093 2.1045 -37.13 -3.80639 -4.2216 -2.1104 -0.0966079 -0.411936 0.214419 -3.53097 
75 0.456944 2.10916 -34.5539 -3.96446 -4.43637 -2.37941 -0.104805 -0.41636 0.213457 -3.53055 
76 0.431613 2.11393 -31.9808 -4.07352 -4.61822 -2.64218 -0.114754 -0.420379 0.204955 -3.53017 
77 0.406123 2.11875 -29.4109 -4.13682 -4.76194 -2.88504 -0.12392 -0.424236 0.188919 -3.52987 
78 0.380488 2.12354 -26.8443 -4.1647 -4.86965 -3.09801 -0.130435 -0.427903 0.167952 -3.52965 
79 0.354713 2.12817 -24.2806 -4.1691 -4.94775 -3.27689 -0.133463 -0.431221 0.145136 -3.52948 
80 0.328809 2.13258 -21.7194 -4.15996 -5.00345 -3.42225 -0.132992 -0.434061 0.122746 -3.52936 
81 0.302794 2.13671 -19.1603 -4.14435 -5.04302 -3.53748 -0.129448 -0.436391 0.102039 -3.52928 
82 0.276688 2.14053 -16.6029 -4.12684 -5.0713 -3.62701 -0.12341 -0.438296 0.0834974 -3.52921 
83 0.25051 2.14403 -14.0467 -4.11008 -5.09174 -3.69534 -0.115445 -0.439948 0.0671404 -3.52916 
84 0.224273 2.1472 -11.4916 -4.09541 -5.1067 -3.74648 -0.10605 -0.441557 0.0527613 -3.52913 
85 0.197983 2.15003 -8.93722 -4.08325 -5.11775 -3.78382 -0.095654 -0.443291 0.0400697 -3.52911 
86 0.17164 2.15253 -6.38337 -4.07346 -5.12589 -3.81 -0.0846371 -0.445204 0.0287493 -3.52909 
87 0.145241 2.15471 -3.8299 -4.06558 -5.13168 -3.82698 -0.0733303 -0.447174 0.0184623 -3.52908 
88 0.118786 2.15657 -1.27665 -4.05904 -5.1354 -3.83596 -0.0619938 -0.448903 0.00883916 -3.52907 
89 0.215206 4.32479 -0.000782462 -3.39198 -4.74245 -3.30013 -0.0732821 -0.929308 0.0363319 -3.53365 
90 0.285139 6.49731 1.27498 -2.77261 -4.34453 -2.86322 -0.0786883 -1.35633 0.0484499 -3.53382 
91 2.20498 2.73569 -5.8179e-05 -3.38892 -3.54399 -3.05077 -0.416093 -0.328453 0.246106 -3.52984 
92 2.17129 2.76248 2.55306 -3.37443 -3.5532 -3.04957 -0.416074 -0.334495 0.238174 -3.52984 
93 2.29122 4.92709 1.2753 -2.72479 -3.57053 -2.7302 -0.345834 -0.802877 0.0116578 -3.53336 
94 4.28792 3.33571 1.27703 -3.39944 -2.89788 -2.72668 -0.49823 -0.212135 0.758712 -3.53336 
95 0.16225 4.32735 2.55215 -3.38272 -4.74375 -3.29734 -0.0590192 -0.929528 0.0179903 -3.53366 
96 0.10929 4.32925 5.10517 -3.37616 -4.74491 -3.28821 -0.0444021 -0.928238 -0.000716427 -3.53367 
97 0.205725 6.50048 3.82764 -2.76253 -4.34713 -2.85782 -0.0610886 -1.35536 0.0222741 -3.53383 
98 2.23082 4.95466 3.82833 -2.7105 -3.57975 -2.72608 -0.336375 -0.80451 -0.00444081 -3.53336 
99 0.126384 6.50262 6.38045 -2.75772 -4.35123 -2.84754 -0.0427752 -1.35329 -0.00451788 -3.53384 
100 4.24678 3.38762 3.83009 -3.38349 -2.91165 -2.72149 -0.504642 -0.226743 0.752219 -3.53336 
101 2.13724 2.7888 5.10628 -3.36082 -3.56379 -3.04168 -0.414523 -0.339893 0.230241 -3.52984 
102 2.10289 2.81463 7.65974 -3.34864 -3.57599 -3.02625 -0.410968 -0.344777 0.222132 -3.52983 
103 2.17011 4.98137 6.38152 -2.69933 -3.59076 -2.71552 -0.324818 -0.805355 -0.0207523 -3.53336 
104 4.20496 3.43891 6.38333 -3.36933 -2.92833 -2.71005 -0.50874 -0.241069 0.745473 -3.53336 
105 0.0563959 4.33047 7.6584 -3.37369 -4.74601 -3.27212 -0.0291889 -0.925654 -0.0201647 -3.53368 
106 0.00363478 4.33099 10.212 -3.37684 -4.74707 -3.24813 -0.0132704 -0.922306 -0.0407156 -3.53369 
107 0.0472046 6.50369 8.93354 -2.75997 -4.35705 -2.83189 -0.023768 -1.35079 -0.0324407 -3.53384 
108 2.10915 5.00719 8.93501 -2.69255 -3.60363 -2.69773 -0.310875 -0.805826 -0.0377178 -3.53336 
109 -0.0317456 6.50367 11.4871 -2.77068 -4.36474 -2.81017 -0.00427396 -1.34859 -0.062065 -3.53382 
110 4.16251 3.48956 8.93688 -3.35769 -2.94812 -2.69157 -0.51008 -0.255473 0.738276 -3.53336 
111 2.06826 2.83995 10.2136 -3.33871 -3.58985 -3.00206 -0.404942 -0.349464 0.213615 -3.52983 
112 2.03339 2.86471 12.768 -3.33185 -3.60516 -2.96745 -0.396097 -0.354453 0.204353 -3.52982 
113 2.048 5.03209 11.489 -2.69142 -3.61823 -2.67161 -0.294411 -0.806532 -0.0559186 -3.53336 
114 4.11947 3.53952 11.4909 -3.34934 -2.97113 -2.66485 -0.508267 -0.270472 0.730356 -3.53336 
115 -0.048938 4.33079 12.7662 -3.38697 -4.7479 -3.21501 0.00325221 -0.918845 -0.0627791 -3.5337 
116 -0.101286 4.32986 15.3211 -3.40487 -4.74795 -3.17098 0.0200655 -0.915825 -0.0868607 -3.5337 
117 -0.110425 6.50256 14.0412 -2.79065 -4.3742 -2.78121 0.0153562 -1.34729 -0.0940547 -3.53379 
118 1.98667 5.05604 14.0436 -2.69687 -3.6342 -2.63572 -0.275444 -0.808174 -0.0760785 -3.53336 
119 -0.188814 6.50033 16.5961 -2.82005 -4.38502 -2.74328 0.0346989 -1.34719 -0.12917 -3.53375 
120 4.07584 3.58878 14.0455 -3.34494 -2.99731 -2.62832 -0.502985 -0.286724 0.721308 -3.53336 
121 1.99831 2.88891 15.3233 -3.32867 -3.62136 -2.92034 -0.384239 -0.360371 0.193883 -3.5298 
122 1.96303 2.91251 17.8795 -3.32934 -3.63747 -2.85818 -0.3693 -0.367884 0.181629 -3.52978 
123 1.92521 5.07901 16.5991 -2.70944 -3.6509 -2.58816 -0.254084 -0.811429 -0.0990284 -3.53335 
124 4.03165 3.63729 16.601 -3.34486 -3.02636 -2.57999 -0.493978 -0.304994 0.710569 -3.53335 
125 -0.153392 4.32819 17.8771 -3.43072 -4.74619 -3.1136 0.0366966 -0.913571 -0.113557 -3.5337 
126 -0.205255 4.32579 20.4343 -3.46387 -4.74084 -3.03956 0.0525789 -0.912128 -0.143472 -3.53369 
127 -0.266912 6.49697 19.1521 -2.85855 -4.39632 -2.69383 0.0533268 -1.34826 -0.168214 -3.5337 
128 1.8636 5.10098 19.1557 -2.7291 -3.66728 -2.5265 -0.23048 -0.816881 -0.125631 -3.53333 
129 -0.344723 6.4925 21.7094 -2.90526 -4.40638 -2.6293 0.0708557 -1.35014 -0.211884 -3.53363 
130 3.9869 3.68502 19.1576 -3.34902 -3.0577 -2.51743 -0.481033 -0.326087 0.697424 -3.53334 
131 1.92755 2.93551 20.4371 -3.33328 -3.65192 -2.77783 -0.351302 -0.377601 0.166959 -3.52975 
132 1.89188 2.95789 22.9964 -3.33885 -3.66228 -2.67568 -0.33036 -0.389957 0.149321 -3.52972 
133 1.80184 5.12193 21.7137 -2.75519 -3.68172 -2.44769 -0.204799 -0.824981 -0.156636 -3.53331 
134 3.94157 3.73194 21.7156 -3.35668 -3.09019 -2.43774 -0.463997 -0.350742 0.681074 -3.53332 
135 -0.256885 4.32266 22.9932 -3.50264 -4.72902 -2.94468 0.0670993 -0.911298 -0.177013 -3.53369 
136 -0.308298 4.31887 25.5541 -3.54366 -4.70623 -2.82403 0.0796161 -0.910726 -0.213998 -3.53369 
137 -0.422252 6.48696 24.2683 -2.95842 -4.41222 -2.54498 0.0869539 -1.35222 -0.260466 -3.53356 
138 1.73994 5.14186 24.2735 -2.78607 -3.69169 -2.34818 -0.177302 -0.835987 -0.192416 -3.53327 
139 -0.499499 6.48042 26.8292 -3.01464 -4.40886 -2.43513 0.101294 -1.35375 -0.313287 -3.5335 
140 3.89568 3.77802 24.2754 -3.36615 -3.12177 -2.33767 -0.442887 -0.379445 0.660797 -3.53328 
141 1.85601 2.97967 25.5578 -3.34277 -3.66473 -2.54787 -0.306775 -0.404999 0.128518 -3.52967 
142 1.81997 3.00088 28.1217 -3.33912 -3.65328 -2.39105 -0.281262 -0.421997 0.105215 -3.52962 
143 1.67789 5.16079 26.8355 -2.81844 -3.6932 -2.22428 -0.148532 -0.849817 -0.232482 -3.53323 
144 3.84926 3.82328 26.8373 -3.37407 -3.14878 -2.21378 -0.418133 -0.412035 0.636302 -3.53323 
145 -0.359512 4.31449 28.1175 -3.58068 -4.66563 -2.67266 0.0894701 -0.910018 -0.253035 -3.53372 
146 -0.410545 4.30968 30.6838 -3.60298 -4.59772 -2.48723 0.0960706 -0.908792 -0.290817 -3.5338 
147 -0.576467 6.47304 29.3927 -3.06753 -4.38837 -2.29356 0.113439 -1.35407 -0.367914 -3.53347 
148 1.61572 5.17886 29.4001 -2.84614 -3.68012 -2.0728 -0.119641 -0.865672 -0.274715 -3.53317 
149 -0.653153 6.46511 31.9592 -3.10575 -4.33892 -2.1155 0.122713 -1.3527 -0.419408 -3.53349 
150 3.80239 3.86776 29.4017 -3.37446 -3.16496 -2.06298 -0.390929 -0.447027 0.608353 -3.53317 
151 1.78382 3.02164 30.6885 -3.31828 -3.61917 -2.20367 -0.255272 -0.438898 0.0816639 -3.52957 
152 1.7477 3.04211 33.2586 -3.26672 -3.55128 -1.98785 -0.231156 -0.452057 0.0620974 -3.52955 
153 1.55353 5.19626 31.9676 -2.85849 -3.64348 -1.89222 -0.0927141 -0.881341 -0.314501 -3.53311 
154 3.75525 3.91159 31.9692 -3.3572 -3.16033 -1.88338 -0.363542 -0.48077 0.579628 -3.53311 
155 -0.461397 4.30466 33.2534 -3.59453 -4.49117 -2.26888 0.0991753 -0.906534 -0.322175 -3.53396 
156 -0.512032 4.29963 35.8265 -3.53744 -4.33709 -2.02627 0.099359 -0.902318 -0.34255 -3.53423 
157 -0.729541 6.45701 34.5292 -3.11159 -4.24507 -1.90125 0.128288 -1.34913 -0.460699 -3.53362 
158 1.49146 5.21336 34.5386 -2.8392 -3.57124 -1.68424 -0.0706701 -0.892544 -0.344814 -3.53308 
159 -0.805563 6.44911 37.1028 -3.06366 -4.09219 -1.66093 0.12986 -1.34206 -0.486095 -3.53388 
160 3.70815 3.95503 34.5399 -3.30703 -3.12094 -1.67613 -0.33913 -0.507364 0.555121 -3.53307 
161 1.71178 3.06249 35.8321 -3.17032 -3.4396 -1.75076 -0.211556 -0.45754 0.0510681 -3.52961 
162 1.67622 3.08289 38.4086 -3.02341 -3.28232 -1.50316 -0.197569 -0.454906 0.0482288 -3.52977 
163 1.42978 5.23055 37.1128 -2.76922 -3.45068 -1.45573 -0.0561612 -0.893975 -0.35968 -3.53313 
164 3.66146 3.99834 37.1141 -3.20574 -3.0325 -1.44784 -0.320467 -0.521352 0.540022 -3.53313 
165 -0.562368 4.29465 38.4027 -3.42273 -4.13783 -1.77455 0.0982939 -0.894946 -0.353443 -3.53458 
166 -0.612311 4.28957 40.9816 -3.25792 -3.90946 -1.52613 0.0982038 -0.883875 -0.363828 -3.53492 
167 -0.881089 6.4415 39.6796 -2.95028 -3.87989 -1.41445 0.128679 -1.32974 -0.498667 -3.53425 
168 1.36871 5.24801 39.6902 -2.63798 -3.27711 -1.2185 -0.0495567 -0.884337 -0.362329 -3.5333 
169 -0.95601 6.43389 42.2588 -2.77982 -3.62831 -1.17953 0.127445 -1.31213 -0.511181 -3.53461 
170 3.61541 4.04169 39.6913 -3.04306 -2.88997 -1.21088 -0.307944 -0.523911 0.532964 -3.53329 
171 1.64102 3.10324 40.9876 -2.83438 -3.08837 -1.25276 -0.187509 -0.449379 0.0456012 -3.53 
172 1.60609 3.12338 43.5688 -2.61321 -2.86585 -0.997206 -0.178852 -0.447498 0.0348788 -3.53027 
173 1.3083 5.26559 42.2698 -2.45192 -3.05971 -0.982682 -0.0480396 -0.87012 -0.367168 -3.53355 
174 3.56997 4.08498 42.2709 -2.82639 -2.70181 -0.976987 -0.299373 -0.524837 0.523098 -3.53354 
175 -0.661842 4.28417 43.5623 -3.05426 -3.66241 -1.28045 0.100241 -0.869948 -0.382099 -3.53523 
176 -0.711127 4.27844 46.1446 -2.82379 -3.39473 -1.01759 0.103596 -0.855321 -0.41369 -3.53549 
177 -1.03038 6.42607 44.8394 -2.55939 -3.34446 -0.962868 0.127529 -1.29154 -0.528895 -3.53496 
178 1.24842 5.28313 44.851 -2.21832 -2.80329 -0.749864 -0.049874 -0.859799 -0.385712 -3.53386 
179 -1.10458 6.41838 47.4203 -2.296 -3.01705 -0.776405 0.129763 -1.27252 -0.542037 -3.53528 
180 3.52493 4.12813 44.852 -2.56111 -2.47542 -0.751976 -0.292099 -0.533037 0.501841 -3.53383 
181 1.57124 3.14329 46.1516 -2.36458 -2.61739 -0.719031 -0.171218 -0.456856 0.00767273 -3.53054 
182 1.53633 3.16338 48.7364 -2.08954 -2.3615 -0.34771 -0.183217 -0.479887 -0.0323029 -3.53015 
183 1.1886 5.30066 47.4331 -1.94357 -2.5052 -0.51875 -0.0633721 -0.86614 -0.430855 -3.53412 
184 3.48001 4.17121 47.4338 -2.24096 -2.22055 -0.543922 -0.286162 -0.559264 0.45774 -3.53404 
185 -0.760666 4.2734 48.7285 -2.60299 -3.07462 -0.669951 0.0971287 -0.846669 -0.419518 -3.53516 
186 -0.811621 4.26877 51.3169 -1.98843 -2.35105 0.311827 0.0838886 -0.841934 -0.653073 -3.53805 
187 -1.17889 6.41384 50.0002 -2.0573 -2.54163 -0.333469 0.0867581 -1.27782 -0.619774 -3.53573 
188 1.12775 5.31799 50.0156 -1.56925 -2.07903 -0.0212275 -0.110549 -0.945563 -0.597547 -3.53484 
189 -1.25707 6.40546 52.5877 -1.6124 -2.48693 0.643239 0.175792 -1.31624 -0.613058 -3.53282 
190 3.43505 4.21346 50.0156 -1.75904 -1.85302 -0.0391571 -0.309457 -0.668742 0.311608 -3.5349 
191 1.50027 3.18358 51.3264 -1.43163 -1.70133 0.657897 -0.172629 -0.548529 -0.133059 -3.53273 
192 1.46587 3.20964 53.9052 0.0267013 0.95399 -0.795881 0.566307 -0.560983 0.138971 -3.37565 
193 1.06597 5.33731 52.6041 -1.2492 -1.89859 0.44146 -0.236983 -0.801315 -0.41079 -3.52779 
194 3.38747 4.26008 52.6041 -1.41016 -1.71363 0.389799 -0.390659 -0.639423 0.58737 -3.52746 
195 -0.866323 4.2769 53.8949 -0.0508636 -0.206135 -1.18047 0.0793776 -1.26166 1.02744 -3.38132 
196 1.3298 4.1174 -56.3442 5.06942 2.90559 1.60241 -1.25473 -0.273891 0.110264 -2.79034 
197 -1.33605 6.40133 55.1665 4.18004 2.79746 1.28996 0.31992 -1.5232 0.197884 -3.26107 
198 1.00488 5.36129 55.1754 5.6421 6.63186 2.70775 0.369869 -0.636457 -0.0326097 -3.15047 
199 1.98371 6.26223 -55.1334 6.93988 9.11552 2.92915 0.134186 -0.847908 -0.525665 -3.02309 
200 3.34328 4.30996 55.1754 5.53065 7.35769 2.86912 0.118701 -0.278621 0.56264 -3.15115 
201 2.87095 2.09325 -56.362 4.04253 6.0065 1.88101 -3.16453 0.252647 0.341793 -2.79939 
202 2.84551 2.1252 -53.8874 0.165017 0.763298 -3.02648 -0.982106 -0.732812 -0.162363 -3.51266 
203 3.53831 4.21674 -55.1525 6.03166 6.27391 1.75935 0.302437 -1.2195 -0.0444734 -3.1433 
204 5.07312 2.13635 -55.1525 6.04997 7.03887 2.00315 0.446064 -0.528119 0.0805378 -3.14511 
205 1.29262 4.16451 -53.8815 0.861258 -0.348242 -3.67507 -0.408873 -0.573879 0.839 -3.51412 
206 1.24176 4.17585 -51.3147 -1.28701 -1.91114 -0.376362 -0.214921 -0.880496 0.220617 -3.53903 
207 1.90264 6.26187 -52.5941 -0.917887 -1.45674 -0.572964 -0.184161 -1.168 0.820118 -3.52792 
208 3.4607 4.22944 -52.6036 -0.748903 -0.925842 0.0954255 -0.677507 -0.496044 0.19139 -3.53019 
209 1.82403 6.27282 -50.0101 -1.6451 -2.32863 -0.267963 -0.199675 -1.28153 0.42877 -3.53672 
210 5.01221 2.17771 -52.6036 -1.34186 -0.348583 0.0545952 -0.502559 0.0192203 0.991512 -3.52952 
211 2.80522 2.14769 -51.32 -1.1037 -0.946895 -0.112968 -0.278143 -0.333092 0.262132 -3.53414 
212 2.77225 2.17449 -48.7405 -1.97024 -1.83812 -0.546903 -0.291049 -0.226488 0.332794 -3.53088 
213 3.40036 4.25787 -50.02 -1.43204 -1.65436 -0.140471 -0.408623 -0.709593 0.283937 -3.53497 
214 4.971 2.23184 -50.02 -1.84412 -1.27435 -0.114199 -0.296532 0.0200536 0.834018 -3.53501 
215 1.18964 4.18027 -48.7356 -2.17913 -2.75913 -0.791469 -0.179888 -0.850053 0.275987 -3.5364 
216 1.13968 4.18607 -46.1541 -2.63793 -3.19342 -0.977731 -0.162864 -0.833387 0.396054 -3.53604 
217 1.74858 6.27835 -47.4306 -2.10133 -2.8358 -0.679973 -0.212662 -1.24108 0.54002 -3.53588 
218 3.345 4.28726 -47.4411 -1.89926 -2.21021 -0.564192 -0.300468 -0.640583 0.331618 -3.53414 
219 1.67461 6.28992 -44.8496 -2.47076 -3.19291 -0.866231 -0.198809 -1.24435 0.599522 -3.53534 
220 4.93479 2.28427 -47.4403 -2.32299 -1.7899 -0.541918 -0.211459 0.103766 0.861903 -3.5342 
221 2.74192 2.20156 -46.1594 -2.36545 -2.27006 -0.739681 -0.230197 -0.163305 0.388549 -3.53074 
222 2.71349 2.23002 -43.5776 -2.67796 -2.59333 -0.95026 -0.213482 -0.151418 0.409275 -3.53037 
223 3.29145 4.31926 -44.8605 -2.23488 -2.57538 -0.718796 -0.259152 -0.625982 0.367485 -3.53392 
224 4.90184 2.33718 -44.8595 -2.65807 -2.14519 -0.722918 -0.176508 0.141671 0.893579 -3.53393 
225 1.09048 4.1944 -43.5722 -2.97701 -3.51337 -1.20473 -0.149615 -0.841153 0.422134 -3.53553 
226 1.04119 4.20349 -40.9911 -3.23724 -3.78858 -1.44537 -0.147016 -0.854207 0.429031 -3.53509 
227 1.60085 6.30323 -42.2685 -2.75353 -3.49918 -1.09237 -0.197728 -1.26206 0.61564 -3.53484 
228 3.23884 4.35276 -42.2796 -2.50855 -2.87214 -0.917976 -0.241619 -0.628061 0.385489 -3.5336 
229 1.52662 6.31727 -39.6887 -2.96466 -3.76645 -1.33569 -0.204412 -1.28128 0.619573 -3.53439 
230 4.87042 2.39101 -42.2786 -2.94148 -2.42801 -0.928037 -0.165301 0.153682 0.91894 -3.5336 
231 2.68562 2.25926 -40.9965 -2.93425 -2.85515 -1.17985 -0.210424 -0.149244 0.42343 -3.53006 
232 2.65785 2.28912 -38.4169 -3.14809 -3.07037 -1.42162 -0.215003 -0.148448 0.43505 -3.52981 
233 3.18645 4.38736 -39.6996 -2.72615 -3.11246 -1.14117 -0.235878 -0.632941 0.396083 -3.53333 
234 4.83959 2.44583 -39.6987 -3.17856 -2.64638 -1.15135 -0.165582 0.158569 0.940799 -3.53333 
235 0.991523 4.21289 -38.4116 -3.43716 -4.03303 -1.69606 -0.151886 -0.866703 0.430341 -3.53468 
236 0.94142 4.22252 -35.8346 -3.57843 -4.2434 -1.95141 -0.161304 -0.87686 0.425157 -3.53431 
237 1.45176 6.33184 -37.1111 -3.10717 -3.99013 -1.5875 -0.215055 -1.29731 0.614664 -3.53398 
238 3.13403 4.42292 -37.1217 -2.88791 -3.29633 -1.37461 -0.239041 -0.639422 0.398418 -3.53315 
239 1.37631 6.34696 -34.5366 -3.18197 -4.15911 -1.834 -0.22536 -1.30967 0.595984 -3.53367 
240 4.80906 2.50165 -37.1207 -3.36627 -2.80315 -1.38363 -0.175591 0.158221 0.954817 -3.53314 
241 2.63008 2.31957 -35.8395 -3.31842 -3.23939 -1.66776 -0.226624 -0.150432 0.440923 -3.52964 
242 2.60228 2.35051 -33.2651 -3.44066 -3.36012 -1.9079 -0.245066 -0.158525 0.437202 -3.52955 
243 3.08152 4.45934 -34.5466 -2.99164 -3.42244 -1.60462 -0.250411 -0.650737 0.387276 -3.53306 
244 4.77874 2.55834 -34.5455 -3.49927 -2.90038 -1.61283 -0.195451 0.147691 0.955967 -3.53306 
245 0.89095 4.23241 -33.2606 -3.66045 -4.41075 -2.19995 -0.171878 -0.88491 0.409423 -3.53401 
246 0.840185 4.24245 -30.69 -3.6907 -4.53231 -2.42814 -0.180584 -0.891661 0.382092 -3.5338 
247 1.3004 6.36248 -31.9656 -3.19909 -4.27138 -2.05895 -0.23225 -1.3194 0.561221 -3.53349 
248 3.0288 4.49632 -31.9747 -3.0421 -3.49801 -1.81852 -0.268293 -0.667818 0.361511 -3.53307 
249 1.22407 6.37805 -29.3982 -3.17641 -4.33664 -2.2513 -0.234672 -1.32706 0.513942 -3.53342 
250 4.74847 2.61563 -31.9735 -3.58003 -2.94746 -1.82672 -0.223599 0.124584 0.944137 -3.53306 
251 2.57437 2.38178 -30.6939 -3.51624 -3.43678 -2.13078 -0.26855 -0.173343 0.423677 -3.52954 
252 2.54621 2.41313 -28.126 -3.55368 -3.47988 -2.32797 -0.294144 -0.192471 0.403694 -3.52957 
253 2.97571 4.53346 -29.4062 -3.05172 -3.53709 -2.00802 -0.289696 -0.688215 0.325627 -3.53312 
254 4.71797 2.67318 -29.4049 -3.61896 -2.95969 -2.01669 -0.256656 0.0917256 0.923784 -3.5331 
255 0.789163 4.25243 -28.1227 -3.68383 -4.61399 -2.62636 -0.185624 -0.897518 0.346337 -3.53368 
256 0.737899 4.26212 -25.5585 -3.65504 -4.6655 -2.79109 -0.186439 -0.902479 0.306798 -3.53362 
257 1.14737 6.39329 -26.8339 -3.13145 -4.36863 -2.40776 -0.232784 -1.33268 0.460276 -3.53342 
258 2.92208 4.57035 -26.8408 -3.03469 -3.55339 -2.16976 -0.31137 -0.708862 0.285635 -3.53318 
259 1.07031 6.40787 -24.2724 -3.07747 -4.37973 -2.53068 -0.227075 -1.33644 0.405663 -3.53347 
260 4.68692 2.73071 -26.8393 -3.62847 -2.95171 -2.17875 -0.290984 0.0540814 0.899905 -3.53316 
261 2.51765 2.44437 -25.5612 -3.56401 -3.50102 -2.49556 -0.319102 -0.212876 0.381237 -3.52963 
262 2.48861 2.47533 -22.999 -3.55718 -3.5096 -2.63347 -0.341582 -0.232351 0.359177 -3.52968 
263 2.86781 4.60673 -24.2781 -3.00288 -3.55716 -2.30389 -0.330777 -0.727627 0.246084 -3.53323 
264 4.65511 2.788 -24.2766 -3.61932 -2.93445 -2.31262 -0.323911 0.0160052 0.876077 -3.53321 
265 0.686401 4.27136 -22.997 -3.61616 -4.69636 -2.92358 -0.183259 -0.906506 0.267309 -3.5336 
266 0.634686 4.28002 -20.4376 -3.57503 -4.71407 -3.02762 -0.176681 -0.909706 0.230201 -3.5336 
267 0.992912 6.42158 -21.7131 -3.02308 -4.37916 -2.62502 -0.218104 -1.33883 0.35362 -3.53353 
268 2.81286 4.64242 -21.7178 -2.96475 -3.55512 -2.41257 -0.346466 -0.743527 0.209493 -3.53327 
269 0.915209 6.43428 -19.1556 -2.97313 -4.37306 -2.6963 -0.206476 -1.34047 0.305855 -3.5336 
270 4.62241 2.84493 -21.7161 -3.59958 -2.91499 -2.42044 -0.353954 -0.0197342 0.8543 -3.53325 
271 2.45904 2.50594 -20.439 -3.54071 -3.5121 -2.74414 -0.360692 -0.249752 0.339045 -3.52972 
272 2.42895 2.53615 -17.8809 -3.51975 -3.51251 -2.83116 -0.376228 -0.264748 0.32139 -3.52975 
273 2.75723 4.67732 -19.1593 -2.92572 -3.55131 -2.49892 -0.357933 -0.756438 0.176829 -3.5333 
274 4.58877 2.90144 -19.1576 -3.57477 -2.89741 -2.50557 -0.380538 -0.0518551 0.83542 -3.53329 
275 0.582775 4.28803 -17.88 -3.53627 -4.72399 -3.10787 -0.16741 -0.912322 0.196506 -3.53361 
276 0.530692 4.29535 -15.3237 -3.5022 -4.72958 -3.16884 -0.156132 -0.91466 0.1664 -3.53362 
277 0.837234 6.44591 -16.5995 -2.92987 -4.3652 -2.74954 -0.192825 -1.34192 0.262813 -3.53366 
278 2.70095 4.7114 -16.6024 -2.8889 -3.54797 -2.56638 -0.36531 -0.766724 0.148121 -3.53332 
279 0.759008 6.45646 -14.0444 -2.89381 -4.35767 -2.78887 -0.177769 -1.34362 0.224222 -3.53371 
280 4.55419 2.95747 -16.6007 -3.54839 -2.8837 -2.57165 -0.403651 -0.080116 0.819556 -3.53331 
281 2.39833 2.56594 -15.3243 -3.49752 -3.51306 -2.8984 -0.388405 -0.277507 0.306188 -3.52978 
282 2.36723 2.59529 -12.7688 -3.47587 -3.5148 -2.94947 -0.397642 -0.288439 0.293128 -3.5298 
283 2.64404 4.74465 -14.0466 -2.85577 -3.54616 -2.61823 -0.36907 -0.774961 0.122916 -3.53334 
284 4.51868 3.01301 -14.0449 -3.52248 -2.87457 -2.62215 -0.42358 -0.104873 0.806436 -3.53333 
285 0.478454 4.30198 -12.7685 -3.47364 -4.73298 -3.21445 -0.143452 -0.917018 0.139592 -3.53363 
286 0.426072 4.3079 -10.2141 -3.45037 -4.7354 -3.2479 -0.129883 -0.919595 0.115585 -3.53363 
287 0.680546 6.46591 -11.4902 -2.86432 -4.35152 -2.81752 -0.161852 -1.34582 0.18947 -3.53374 
288 2.58655 4.77707 -11.4918 -2.82671 -3.54624 -2.65742 -0.369831 -0.781728 0.100575 -3.53335 
289 0.601854 6.47429 -8.93654 -2.84014 -4.34709 -2.83791 -0.145502 -1.34852 0.157834 -3.53377 
290 4.48228 3.06806 -11.4901 -3.49804 -2.86996 -2.66006 -0.440754 -0.126745 0.795598 -3.53334 
291 2.33566 2.62422 -10.2141 -3.45567 -3.51807 -2.9875 -0.404443 -0.298005 0.281795 -3.52981 
292 2.30364 2.65272 -7.66007 -3.43712 -3.52283 -3.01502 -0.409317 -0.306601 0.27177 -3.52982 
293 2.5285 4.80868 -8.93767 -2.80143 -3.54816 -2.68639 -0.368215 -0.787482 0.0804397 -3.53335 
294 4.44502 3.12261 -8.93598 -3.47541 -2.86942 -2.6878 -0.455631 -0.146391 0.786522 -3.53335 
295 0.373549 4.31314 -7.6603 -3.43156 -4.73742 -3.27169 -0.11584 -0.922413 0.0938194 -3.53364 
296 0.320888 4.31769 -5.10689 -3.41615 -4.73926 -3.28764 -0.101632 -0.925268 0.073726 -3.53364 
297 0.52294 6.4816 -6.38332 -2.81978 -4.34436 -2.85177 -0.128993 -1.35145 0.128587 -3.53379 
298 2.46991 4.83948 -6.38405 -2.77923 -3.55169 -2.70706 -0.364757 -0.79248 0.0619204 -3.53335 
299 0.443821 6.48787 -3.8304 -2.80199 -4.34313 -2.86026 -0.112424 -1.3541 0.101032 -3.5338 
300 4.40693 3.17667 -6.38236 -3.45449 -2.87235 -2.70724 -0.468624 -0.164383 0.778706 -3.53335 
301 2.27117 2.6808 -5.10649 -3.42005 -3.52884 -3.03395 -0.412707 -0.314485 0.262678 -3.52983 
302 2.23828 2.70846 -2.5532 -3.40409 -3.53591 -3.04562 -0.414929 -0.321768 0.254208 -3.52983 
303 2.41081 4.86949 -3.83076 -2.75935 -3.55663 -2.72078 -0.359824 -0.796779 0.0445305 -3.53336 
304 4.36803 3.23021 -3.82907 -3.435 -2.87825 -2.71972 -0.480019 -0.181153 0.7717 -3.53336 
305 0.268099 4.32157 -2.55376 -3.40315 -4.74096 -3.29692 -0.0874391 -0.92774 0.054744 -3.53364 
306 0.364533 6.4931 -1.27767 -2.78616 -4.34322 -2.864 -0.095723 -1.35588 0.0745201 -3.53381 
307 2.35123 4.8987 -1.27769 -2.74123 -3.56288 -2.72839 -0.353552 -0.800288 0.0278824 -3.53336 
308 4.32835 3.28324 -1.27599 -3.41668 -2.88679 -2.72608 -0.489923 -0.197001 0.765133 -3.53336 
309 2.43623 7.09098 -0.00152799 -2.2162 -3.36006 -2.4012 -0.317276 -1.20578 -0.187887 -3.5329 
310 0.434478 8.66815 -0.0018002 -2.24765 -4.01602 -2.49637 -0.099423 -1.74224 0.08324 -3.53357 