LAMMPS (15 May 2015)
Processor partition = 0
------- This is Cu ---------
Reading restart file ...
  restart file = 15 May 2015, LAMMPS = 15 May 2015
  orthogonal box = (-100 -100 -156.15) to (100 100 156.15)
  1 by 1 by 1 MPI processor grid
  37664 atoms
WARNING: Resetting reneighboring criteria during minimization (../min.cpp:168)
Neighbor list info ...
  1 neighbor list requests
  update every 1 steps, delay 0 steps, check yes
  master list distance cutoff = 6.50679
Setting up minimization ...
Memory usage per processor = 25.009 Mbytes
Step TotEng PotEng KinEng Temp Press sxx syy szz sxy sxz syz 
       0      -129886.984000856522      -129886.984000856522                         0                         0      -107.798741890253382    -0.0892391371193575061    -0.0922163944711588551       1.08964367625473368    0.00171166847228380122  -0.000760302934347621001  -4.49380293015944242e-06 
     100      -129886.983996076364      -129886.984291588655   0.000295512290153855477   6.07010213568574857e-05      -107.803948765133569    -0.0892686776811711241    -0.0921527627381977799         1.089653452219286    0.00162817262337223859   -0.00072434816351726319   5.19359277002211166e-05 
     200      -129886.983994423892      -129886.985044837624    0.00105041373729680286   0.000215764923577266792      -107.816059132066357    -0.0893744300640703232    -0.0919670956319783295       1.08967556551114719    0.00139118895485843062  -0.000621781122786202608   0.000227454774253011403 
     300      -129886.985044206376      -129886.985599505948    0.00055529956518811385   0.000114063786478687686      -107.823622653258283    -0.0894897623514983309    -0.0918009981617039367       1.08968852185378751    0.00119481479922642093  -0.000533824750528305103   0.000395206717089393071 
     400      -129886.985724646351      -129886.986010111708   0.000285465351865350921   5.86372851403230499e-05      -107.828368346872736    -0.0896044866898535325    -0.0916537008680807508        1.0896959306515861    0.00103413590209149703  -0.000457964605924258083   0.000551160424567470673 
     500      -129886.986178258303      -129886.986325360966   0.000147102663282141778   3.02162793327173063e-05      -107.831652964022879    -0.0897153584174581187    -0.0915200400616359572       1.08970081397692153    0.00089974256913802808  -0.000391148351911421027   0.000697632111159587399 
     600      -129886.986492555166      -129886.986568084511   7.55293409367810599e-05   1.55144414971233019e-05      -107.834152517976463      -0.08981762619786271    -0.0914005829449187068       1.08970468300573731   0.000788818038165180701  -0.000333196045636279924   0.000832271750423929689 
     700      -129886.986491974472      -129886.986739795786   0.000247821308923866371    5.0904842427501075e-05      -107.836048859835472    -0.0899003165876389176    -0.0913051582072263584       1.08970792505202962   0.000706267779495644253  -0.000288052874086933489   0.000942541857714704356 
     800      -129886.986724400253       -129886.98687368822   0.000149287970752675736   3.06651621706226934e-05      -107.837749798617082    -0.0899707212354372704    -0.0912237100359352265       1.08971121168128127   0.000640055213705036574  -0.000250346720230426817    0.00103877938004754669 
     900      -129886.986897667302      -129886.986987037017   8.93697185780621022e-05   1.83573860607926217e-05      -107.839422239072718    -0.0900341021662399849    -0.0911497949215726161       1.08971476755634855   0.000583222140684570432  -0.000216664273621932062    0.00112822278105038682 
     934       -129886.98689756458      -129886.987024378555   0.000126813981271264718   2.60487920197410906e-05      -107.840032408614604    -0.0900556331985191555    -0.0911244936812714845       1.08971613793471644   0.000564459165013812196   -0.00020522566803855827     0.0011593998472971107 
Loop time of 91.5168 on 1 procs for 934 steps with 37664 atoms

Minimization stats:
  Stopping criterion = force tolerance
  Energy initial, next-to-last, final = 
        -129886.984001     -129886.987023     -129886.987024
  Force two-norm initial, final = 0.0099719 0.00299693
  Force max component initial, final = 0.000213592 4.53881e-05
  Final line search alpha, max atom move = 0 0
  Iterations, force evaluations = 934 934

Pair  time (%) = 87.5313 (95.6451)
Neigh time (%) = 0.0722079 (0.0789013)
Comm  time (%) = 0.00206304 (0.00225427)
Outpt time (%) = 0.0182664 (0.0199597)
Other time (%) = 3.89293 (4.25378)

Nlocal:    37664 ave 37664 max 37664 min
Histogram: 1 0 0 0 0 0 0 0 0 0
Nghost:    0 ave 0 max 0 min
Histogram: 1 0 0 0 0 0 0 0 0 0
Neighs:    1.523e+06 ave 1.523e+06 max 1.523e+06 min
Histogram: 1 0 0 0 0 0 0 0 0 0

Total # of neighbors = 1522997
Ave neighs/atom = 40.4364
Neighbor list builds = 1
Dangerous builds = 0
WARNING: Resetting reneighboring criteria during minimization (../min.cpp:168)
Setting up minimization ...
Memory usage per processor = 25.009 Mbytes
Step TotEng PotEng KinEng Temp Press sxx syy szz sxy sxz syz 
     934      -129886.987024378555      -129886.987024378555                         0                         0      -107.840043251728005    -0.0900555922037486883    -0.0911244677238497447       1.08971616233411295    0.00056446757941663807  -0.000205232823917775087    0.00115940791198320737 
    1000      -129886.987024242073      -129886.987035972197   1.17301285949454691e-05   2.40947943650586578e-06       -107.84024036816021    -0.0900623280466268522    -0.0911165217753861778       1.08971661290474664   0.000558650076133314008  -0.000201649745463949745    0.00116926514322235179 
    1061      -129886.987023923837      -129886.987066811344   4.28875093636564962e-05   8.80950034420006206e-06      -107.840782879615148    -0.0900803238968379688    -0.0910952122117469204        1.0897178697685288   0.000543223646127515003  -0.000192054299261873462    0.00119586125563608228 
Loop time of 12.768 on 1 procs for 127 steps with 37664 atoms

Minimization stats:
  Stopping criterion = force tolerance
  Energy initial, next-to-last, final = 
        -129886.987024     -129886.987066     -129886.987067
  Force two-norm initial, final = 0.00299693 0.00287996
  Force max component initial, final = 4.53881e-05 4.23221e-05
  Final line search alpha, max atom move = 0 0
  Iterations, force evaluations = 127 127

Pair  time (%) = 12.0164 (94.1136)
Neigh time (%) = 0.0721691 (0.565234)
Comm  time (%) = 0.000641108 (0.00502121)
Outpt time (%) = 0.00206208 (0.0161504)
Other time (%) = 0.676702 (5.29999)

Nlocal:    37664 ave 37664 max 37664 min
Histogram: 1 0 0 0 0 0 0 0 0 0
Nghost:    0 ave 0 max 0 min
Histogram: 1 0 0 0 0 0 0 0 0 0
Neighs:    1.52299e+06 ave 1.52299e+06 max 1.52299e+06 min
Histogram: 1 0 0 0 0 0 0 0 0 0

Total # of neighbors = 1522993
Ave neighs/atom = 40.4363
Neighbor list builds = 1
Dangerous builds = 0
