LAMMPS (15 May 2015)
Processor partition = 8
------- This is Cu ---------
Reading restart file ...
  restart file = 15 May 2015, LAMMPS = 15 May 2015
  orthogonal box = (-100 -100 -156.15) to (100 100 156.15)
  1 by 1 by 1 MPI processor grid
  37664 atoms
WARNING: Resetting reneighboring criteria during minimization (../min.cpp:168)
Neighbor list info ...
  1 neighbor list requests
  update every 1 steps, delay 0 steps, check yes
  master list distance cutoff = 6.50679
Setting up minimization ...
Memory usage per processor = 25.009 Mbytes
Step TotEng PotEng KinEng Temp Press sxx syy szz sxy sxz syz 
       0      -129886.981903647553      -129886.981903647553                         0                         0      -107.809582222609379    -0.0892404243626487154     -0.091850397862487429       1.08937029505476124    0.00129045296957119426  -0.000285673805504207728    0.00105111817650765005 
     100      -129886.981899200851      -129886.982193600576   0.000294399722175085396   6.04724893638052899e-05      -107.814667170340144    -0.0892699885578480401    -0.0917873145907801696       1.08937961589609711    0.00120687010290684849  -0.000250573963071410951    0.00110750580755692514 
     200      -129886.981894786048      -129886.982945518015    0.00105073197384533278   0.000215830292376374222      -107.826480513620425    -0.0893759417392842592    -0.0916024205906167815       1.08940020071308163   0.000970155920218682935  -0.000149006176304020349    0.00128348709827866606 
     300      -129886.982944712028      -129886.983500412156    0.00055570012955616214   0.000114146066191139024      -107.833921590126224    -0.0894912271708603879    -0.0914365337427628516       1.08941228924425815   0.000773602396187355137  -6.09943206369984304e-05    0.00145189946114849242 
     400      -129886.983625207096      -129886.983910761352   0.000285554251068111814   5.86555458779816719e-05      -107.838591202642107    -0.0896059207924070622     -0.091289374038675597       1.08941916394299931   0.000612783176486178418   1.48589819520896518e-05    0.00160836453081243907 
     500       -129886.98407868213      -129886.984225814333   0.000147132195919007593    3.0222345615849504e-05      -107.841807707394196    -0.0897168110168012206    -0.0911558640326255998       1.08942364272886461   0.000478324171004866215   8.16639925364374454e-05    0.00175522748729146027 
     600      -129886.984392809405      -129886.984468360446   7.55510337305699954e-05   1.55188974022851048e-05      -107.844251832355141    -0.0898191106370817283    -0.0910365445158931724       1.08942721421663413    0.00036737069931581305   0.000139617847377568696    0.00189016177874299154 
     700      -129886.984392212777      -129886.984640141454   0.000247928679509837357   5.09268973620986503e-05      -107.846109171760077    -0.0899018306765618919    -0.0909412283925729731       1.08943026593718995   0.000284815492811735921     0.0001847643214634518    0.00200061811791121553 
     800      -129886.984624559787      -129886.984773937729   0.000149377934664938751   3.06836416096902879e-05      -107.847781164646136    -0.0899722633722108839    -0.0908598617872758696       1.08943341831547813    0.00021860071321821867   0.000222483902196026346    0.00209700286687870482 
     900      -129886.984797800382      -129886.984887240789   8.94404113372059798e-05   1.83719070226122918e-05      -107.849430711486932    -0.0900356727442549326    -0.0907860152843198154       1.08943687836794645   0.000161772272192792091   0.000256181575485492125     0.0021865571313253473 
     934      -129886.984797693047      -129886.984924616481   0.000126923430726640286   2.60712739737904131e-05      -107.850033752049441    -0.0900572143697541544    -0.0907607374845645076       1.08943822271948654   0.000143013907920304769   0.000267624543208739706     0.0022177631961610763 
Loop time of 91.5168 on 1 procs for 934 steps with 37664 atoms

Minimization stats:
  Stopping criterion = force tolerance
  Energy initial, next-to-last, final = 
        -129886.981904     -129886.984923     -129886.984925
  Force two-norm initial, final = 0.00997176 0.00299823
  Force max component initial, final = 0.00021396 4.53997e-05
  Final line search alpha, max atom move = 0 0
  Iterations, force evaluations = 934 934

Pair  time (%) = 84.7053 (92.5572)
Neigh time (%) = 0.0691221 (0.0755294)
Comm  time (%) = 0.00269938 (0.0029496)
Outpt time (%) = 0.0168211 (0.0183804)
Other time (%) = 6.72281 (7.34599)

Nlocal:    37664 ave 37664 max 37664 min
Histogram: 1 0 0 0 0 0 0 0 0 0
Nghost:    0 ave 0 max 0 min
Histogram: 1 0 0 0 0 0 0 0 0 0
Neighs:    1.52298e+06 ave 1.52298e+06 max 1.52298e+06 min
Histogram: 1 0 0 0 0 0 0 0 0 0

Total # of neighbors = 1522983
Ave neighs/atom = 40.436
Neighbor list builds = 1
Dangerous builds = 0
WARNING: Resetting reneighboring criteria during minimization (../min.cpp:168)
Setting up minimization ...
Memory usage per processor = 25.009 Mbytes
Step TotEng PotEng KinEng Temp Press sxx syy szz sxy sxz syz 
     934      -129886.984924616481      -129886.984924616481                         0                         0       -107.85004460452123    -0.0900571733475888508    -0.0907607114936407194       1.08943824713683202   0.000143022324897464618   0.000267617367922503115    0.00221777126632613855 
    1000      -129886.984924479635      -129886.984936220033   1.17403981517355897e-05   2.41158890066966752e-06      -107.850239543867616     -0.090063912708868557    -0.0907527731393395071        1.0894386904784239   0.000137206244345988254   0.000271201158333994456    0.00222763682075544957 
    1061      -129886.984924153992      -129886.984967077282   4.29232965455031892e-05    8.8168513700692295e-06      -107.850776270769131    -0.0900819195280160995    -0.0907314912761746639       1.08943993727760624   0.000121783927411751666   0.000280777180448946162    0.00225424769877016805 
Loop time of 12.768 on 1 procs for 127 steps with 37664 atoms

Minimization stats:
  Stopping criterion = force tolerance
  Energy initial, next-to-last, final = 
        -129886.984925     -129886.984966     -129886.984967
  Force two-norm initial, final = 0.00299823 0.00288116
  Force max component initial, final = 4.53997e-05 4.23353e-05
  Final line search alpha, max atom move = 0 0
  Iterations, force evaluations = 127 127

Pair  time (%) = 11.6255 (91.0518)
Neigh time (%) = 0.069057 (0.540859)
Comm  time (%) = 0.000677347 (0.00530503)
Outpt time (%) = 0.00189495 (0.0148414)
Other time (%) = 1.07088 (8.38722)

Nlocal:    37664 ave 37664 max 37664 min
Histogram: 1 0 0 0 0 0 0 0 0 0
Nghost:    0 ave 0 max 0 min
Histogram: 1 0 0 0 0 0 0 0 0 0
Neighs:    1.52298e+06 ave 1.52298e+06 max 1.52298e+06 min
Histogram: 1 0 0 0 0 0 0 0 0 0

Total # of neighbors = 1522983
Ave neighs/atom = 40.436
Neighbor list builds = 1
Dangerous builds = 0
