LAMMPS (15 May 2015)
Processor partition = 7
------- This is Cu ---------
Reading restart file ...
  restart file = 15 May 2015, LAMMPS = 15 May 2015
  orthogonal box = (-100 -100 -156.15) to (100 100 156.15)
  1 by 1 by 1 MPI processor grid
  37664 atoms
WARNING: Resetting reneighboring criteria during minimization (../min.cpp:168)
Neighbor list info ...
  1 neighbor list requests
  update every 1 steps, delay 0 steps, check yes
  master list distance cutoff = 6.50679
Setting up minimization ...
Memory usage per processor = 25.009 Mbytes
Step TotEng PotEng KinEng Temp Press sxx syy szz sxy sxz syz 
       0          -129886.98108949          -129886.98108949                         0                         0      -107.808345497428903    -0.0892417475114728881    -0.0918985296259998696       1.08940933074395363    0.00134182872573081354   -0.00035007592653661765   0.000917254508281701176 
     100      -129886.981086468484      -129886.981381647056   0.000295178576530227312   6.06324734200377352e-05      -107.813718192968253    -0.0892701043429446756    -0.0918334618242980932       1.08941788392344718    0.00125983630734039019  -0.000312352989062991617   0.000974145245923857821 
     200      -129886.981083152816      -129886.982133765749    0.00105061293875618241   0.000215805841442421665       -107.82555552618949    -0.0893760507373344004    -0.0916484292825530122       1.08943852552345533     0.0010230956751816169  -0.000210416486003080309    0.00115013802240827271 
     300       -129886.98213283364      -129886.982688489952    0.00055565631356826919   0.000114137065972517076      -107.833012392356167    -0.0894913462149145994    -0.0914825177187239824       1.08945073241017121   0.000826571836636004085   -0.00012240679950062546    0.00131845661125349245 
     400      -129886.982813305731      -129886.983098853249   0.000285547522494225168   5.86541637652208711e-05      -107.837693535361353    -0.0896060417233925793    -0.0913353323144909662       1.08945768043833224   0.000665764440862587651  -4.65426557010808231e-05    0.00147486385489578402 
     500      -129886.983266797528      -129886.983413927388   0.000147129855408363141    3.0221864852810709e-05      -107.840919933204091    -0.0897169284561854657    -0.0912017974551799782       1.08946221422710043    0.00053130956416442914   2.02703086568222833e-05    0.00162168246235900324 
     600      -129886.983580958826      -129886.983656507597   7.55487742736652183e-05   1.55184332884515956e-05      -107.843371939541171    -0.0898192234433699138    -0.0910824561581561054        1.0894658257008909   0.000420356489922417344   7.82292264463947294e-05    0.00175658446890917001 
     700      -129886.983580376851      -129886.983828293247   0.000247916393407478675   5.09243736803889009e-05      -107.845234782317917    -0.0899019393382527038    -0.0909871239330726361       1.08946890354018922   0.000337800447644892587     0.0001233781406655068    0.00186701896707790172 
     800      -129886.983812731851      -129886.983962099126   0.000149367278174835836   3.06814526657618009e-05      -107.846910895635446     -0.089972368196170327    -0.0909057447469798635       1.08947207421396408   0.000271584292361530988   0.000161098744237624092    0.00196338784837748938 
     900      -129886.983985972984      -129886.984075404893   8.94319128101782654e-05   1.83701613447240991e-05      -107.848563725261471    -0.0900357737305829825    -0.0908318876706998984       1.08947554751245446   0.000214753877546089189   0.000194796719891684008    0.00205293049909460344 
     934      -129886.983985871993      -129886.984112782229   0.000126910235370786463   2.60685635228068804e-05      -107.849167787296423    -0.0900573139371974862     -0.090806606514656607       1.08947689569457173   0.000195994740960213142   0.000206239557753597392    0.00208413304570454622 
Loop time of 91.5167 on 1 procs for 934 steps with 37664 atoms

Minimization stats:
  Stopping criterion = force tolerance
  Energy initial, next-to-last, final = 
        -129886.981089     -129886.984112     -129886.984113
  Force two-norm initial, final = 0.0102154 0.00299807
  Force max component initial, final = 0.000413972 4.5398e-05
  Final line search alpha, max atom move = 0 0
  Iterations, force evaluations = 934 934

Pair  time (%) = 84.5775 (92.4175)
Neigh time (%) = 0.0692039 (0.0756188)
Comm  time (%) = 0.00268149 (0.00293006)
Outpt time (%) = 0.0168102 (0.0183684)
Other time (%) = 6.85053 (7.48554)

Nlocal:    37664 ave 37664 max 37664 min
Histogram: 1 0 0 0 0 0 0 0 0 0
Nghost:    0 ave 0 max 0 min
Histogram: 1 0 0 0 0 0 0 0 0 0
Neighs:    1.52298e+06 ave 1.52298e+06 max 1.52298e+06 min
Histogram: 1 0 0 0 0 0 0 0 0 0

Total # of neighbors = 1522984
Ave neighs/atom = 40.4361
Neighbor list builds = 1
Dangerous builds = 0
WARNING: Resetting reneighboring criteria during minimization (../min.cpp:168)
Setting up minimization ...
Memory usage per processor = 25.009 Mbytes
Step TotEng PotEng KinEng Temp Press sxx syy szz sxy sxz syz 
     934      -129886.984112782229      -129886.984112782229                         0                         0      -107.849178638639955    -0.0900572729184384718    -0.0908065805281304123        1.0894769201102148   0.000196003157608374038   0.000206232384646209591    0.00208414111527559188 
    1000       -129886.98411060877      -129886.984122434398   1.18256262796814126e-05   2.42909556481534816e-06      -107.849371082842794    -0.0900640123807585485    -0.0907987768297045805        1.0894774771875253   0.000190340656286833903   0.000209634279354999656    0.00209361466127331404 
    1061      -129886.984095434193      -129886.984138869331   4.34351362374557989e-05   8.92198808724714046e-06      -107.849888611533004    -0.0900820196192564926    -0.0907784877552212793       1.08947955545270903   0.000176066008156338104   0.000217878634480521307     0.0021173282649114551 
Loop time of 12.768 on 1 procs for 127 steps with 37664 atoms

Minimization stats:
  Stopping criterion = force tolerance
  Energy initial, next-to-last, final = 
        -129886.984113     -129886.984139     -129886.984139
  Force two-norm initial, final = 0.00299807 0.00289808
  Force max component initial, final = 4.5398e-05 7.79357e-05
  Final line search alpha, max atom move = 0 0
  Iterations, force evaluations = 127 127

Pair  time (%) = 11.6092 (90.9245)
Neigh time (%) = 0.0692639 (0.54248)
Comm  time (%) = 0.000686884 (0.00537973)
Outpt time (%) = 0.001894 (0.0148339)
Other time (%) = 1.08692 (8.51281)

Nlocal:    37664 ave 37664 max 37664 min
Histogram: 1 0 0 0 0 0 0 0 0 0
Nghost:    0 ave 0 max 0 min
Histogram: 1 0 0 0 0 0 0 0 0 0
Neighs:    1.52298e+06 ave 1.52298e+06 max 1.52298e+06 min
Histogram: 1 0 0 0 0 0 0 0 0 0

Total # of neighbors = 1522984
Ave neighs/atom = 40.4361
Neighbor list builds = 1
Dangerous builds = 0
