ITEM: TIMESTEP
409
ITEM: NUMBER OF ATOMS
37664
ITEM: BOX BOUNDS ff ff ff
-100 100
-100 100
-156.15 156.15
ITEM: ATOMS id x y z 
21986 -33.7764 -0.0733757 9.74159 
21987 -33.7761 -0.476571 12.2967 
22022 -33.7693 -0.882448 14.8517 
22023 -33.7568 -1.28991 17.407 
22058 -33.7387 -1.69821 19.9629 
22059 -33.7153 -2.10686 22.5195 
22094 -33.6863 -2.51545 25.0772 
22093 -34.5618 -0.0994496 25.0156 
22095 -33.6519 -2.9236 27.6365 
22128 -34.5571 -0.518809 27.5732 
22130 -33.6117 -3.33088 30.1979 
22131 -33.5654 -3.73668 32.7622 
22129 -34.5468 -0.937827 30.1328 
22164 -34.531 -1.35602 32.6951 
22166 -33.5125 -4.14007 35.3308 
22165 -34.5092 -1.77272 35.2614 
22167 -33.4517 -4.53934 37.9055 
22200 -34.4809 -2.18679 37.8333 
21048 -33.3483 -0.0806831 36.6151 
22202 -33.3807 -4.93111 40.4889 
22201 -34.4447 -2.59603 40.4137 
21053 -33.3451 -0.478572 39.185 
22234 -35.4889 -0.255713 40.3675 
21114 -33.3373 -0.870391 41.7627 
22236 -34.3972 -2.99496 43.0074 
22235 -35.4803 -0.673399 42.9524 
22237 -34.3344 -3.37177 45.6221 
22270 -35.4607 -1.07546 45.5581 
22272 -34.2583 -3.71291 48.2645 
22273 -34.2084 -4.03808 50.9958 
22271 -35.4256 -1.44129 48.1982 
22306 -35.4174 -1.77126 50.9573 
22308 -34.075 -4.39245 53.5803 
22307 -35.3133 -2.14601 53.5409 
22309 -33.4855 -4.46588 56.2135 
21308 -34.3039 -0.26168 54.5456 
22342 -34.7563 -2.22063 56.1815 
14704 -33.3836 20.2805 -38.1331 
22486 -33.3714 11.9688 -33.5695 
22514 -33.5317 14.5098 -33.5145 
22484 -33.3542 14.9033 -36.0328 
22512 -33.49 17.4276 -35.8954 
22513 -33.6999 17.0314 -33.3707 
14705 -33.627 19.8876 -35.611 
14740 -33.868 19.4891 -33.0837 
22516 -33.5154 11.5731 -31.0463 
22515 -33.7068 14.1115 -30.9888 
22539 -33.9071 16.6303 -30.8401 
14741 -34.1055 19.0855 -30.5518 
22518 -33.4314 8.625 -28.5147 
22517 -33.6559 11.1735 -28.5171 
22541 -33.8785 13.7092 -28.4574 
22540 -34.1103 16.2248 -28.305 
14776 -34.3385 18.6774 -28.0163 
22519 -33.537 8.22514 -25.9808 
22543 -33.7923 10.7706 -25.9832 
22542 -34.046 13.3032 -25.9216 
22562 -34.309 15.8156 -25.7665 
14777 -34.5666 18.2652 -25.4776 
22521 -33.3409 5.27242 -23.3972 
22545 -33.6377 7.82291 -23.4436 
22544 -33.9241 10.3649 -23.4457 
22564 -34.2091 12.894 -23.3824 
22563 -34.5027 15.4027 -23.2254 
14812 -34.7895 17.849 -22.9363 
22547 -33.4052 4.87211 -20.857 
22548 -33.4645 4.4688 -18.3152 
22546 -33.7336 7.4183 -20.9035 
22568 -33.825 7.01017 -18.3614 
22566 -34.0514 9.95624 -20.9053 
22567 -34.1742 9.54371 -18.3627 
22565 -34.3674 12.4814 -20.8408 
22582 -34.875 14.5651 -18.138 
22583 -34.5209 12.0646 -18.2974 
22581 -34.6914 14.9861 -20.6824 
14813 -35.007 17.4288 -20.393 
22570 -33.5185 4.05748 -15.7723 
22569 -33.9116 6.59526 -15.8177 
22585 -34.292 9.12512 -15.8186 
22584 -34.6693 11.6421 -15.7528 
22596 -35.0532 14.1384 -15.5928 
14848 -35.2191 17.0038 -17.8481 
14849 -35.426 16.5729 -15.3025 
13846 -33.4061 15.8801 -16.5757 
22571 -33.5657 3.63279 -13.2289 
22587 -33.992 6.17064 -13.2729 
22586 -34.4039 8.69887 -13.2734 
22598 -34.8117 11.2129 -13.2073 
22597 -35.2258 13.7053 -13.0472 
14884 -35.6278 16.1353 -12.7567 
13910 -33.6001 15.469 -14.0301 
14883 -33.537 17.438 -12.469 
22589 -33.6051 3.20279 -10.684 
22588 -34.0654 5.74132 -10.7267 
22600 -34.5092 8.26815 -10.7269 
22599 -34.948 10.7792 -10.661 
22607 -35.3927 13.2674 -10.5011 
21793 -33.346 12.5698 -11.721 
21809 -33.4995 12.1546 -9.17473 
14885 -35.8246 15.6926 -10.2111 
13912 -33.789 15.0525 -11.4844 
14918 -33.75 17.0213 -9.92216 
22590 -33.6389 2.7779 -8.13652 
22602 -34.1329 5.31398 -8.17865 
22601 -34.6085 7.83745 -8.17919 
22609 -35.0784 10.3443 -8.11367 
22608 -35.5539 12.8274 -7.95425 
21813 -33.6476 11.7387 -6.6276 
13976 -33.9728 14.6324 -8.93839 
13978 -34.1513 14.2108 -6.39185 
14920 -36.0159 15.2474 -7.66518 
14919 -33.9579 16.6018 -7.37584 
22604 -33.6694 2.3587 -5.58677 
22603 -34.1957 4.88991 -5.62908 
22613 -34.2541 4.46891 -3.07819 
22611 -34.7025 7.40836 -5.63026 
22612 -34.7915 6.98122 -3.08028 
22610 -35.2033 9.90984 -5.56534 
21821 -33.7902 11.3229 -4.07957 
22614 -35.7095 12.3872 -5.40658 
14042 -34.3243 13.7889 -3.84465 
14921 -36.2014 14.8015 -5.11871 
14954 -34.16 16.1809 -4.82959 
21917 -33.721 1.53312 -0.481154 
22605 -33.6968 1.94393 -3.03489 
21916 -34.308 4.05086 -0.526151 
21946 -34.8754 6.55619 -0.529367 
21823 -33.3674 8.42482 -1.66218 
21945 -35.437 9.04464 -0.465941 
21978 -36.0037 11.5089 -0.308629 
22616 -35.3228 9.47651 -3.01607 
21824 -33.9274 10.9079 -1.53071 
14301 -36.5545 13.9109 -0.0234155 
14956 -36.381 14.3559 -2.57148 
14044 -34.4916 13.3673 -1.29672 
22615 -35.8594 11.9476 -2.85803 
14955 -34.3562 15.7597 -2.28301 
21918 -33.7414 1.12675 2.074 
21948 -34.3572 3.63604 2.02682 
21947 -34.9543 6.13345 2.02234 
20587 -33.4691 8.01787 0.888353 
21980 -35.5458 8.61438 2.08491 
21979 -36.1422 11.0714 2.2415 
20645 -34.0591 10.4939 1.01891 
14305 -36.7218 13.4667 2.52549 
12852 -34.6531 12.9463 1.25192 
14303 -34.5464 15.3386 0.264157 
14304 -34.7304 14.9178 2.8121 
21950 -33.758 0.725256 4.62999 
21949 -34.4019 3.22446 4.58047 
21982 -35.0282 5.71284 4.57466 
20648 -33.5656 7.61259 3.43963 
21981 -35.6493 8.18554 4.6363 
22014 -36.2749 10.6349 4.79217 
20649 -34.1854 10.081 3.56917 
14306 -36.8828 13.0231 5.07516 
12854 -34.8087 12.5259 3.8012 
14312 -34.9082 14.497 5.36091 
21951 -33.7701 0.326566 7.18605 
21984 -34.4418 2.81451 7.13442 
21983 -35.0972 5.29314 7.12732 
20653 -33.6569 7.20848 5.99146 
20714 -33.7427 6.80425 8.54349 
22016 -35.7474 7.75712 7.18796 
22015 -36.4019 10.1984 7.34309 
20711 -34.306 9.66865 6.11987 
20715 -34.421 9.2558 8.6707 
12868 -35.1016 11.6846 8.90084 
14314 -37.0374 12.5794 7.6253 
12866 -34.9582 12.1057 6.35094 
14313 -35.0799 14.0758 7.91047 
21985 -34.4762 2.40352 9.68833 
22018 -35.1607 4.87247 9.68003 
20719 -33.8231 6.39855 11.0954 
22017 -35.8399 7.32771 9.7396 
22050 -36.5228 9.76081 9.89389 
20777 -34.5301 8.8414 11.2213 
12888 -35.2389 11.2619 11.4505 
14315 -37.1858 12.1343 10.1755 
14325 -35.2457 13.6532 10.4604 
22020 -34.5047 1.99009 12.2421 
22021 -34.5272 1.57442 14.7959 
22019 -35.2184 4.44975 12.2327 
22054 -35.2702 4.02495 14.7852 
20780 -33.8978 5.99079 13.6471 
22052 -35.9265 6.89636 12.291 
20781 -34.6335 8.42489 13.7715 
22053 -36.0071 6.46291 14.842 
22051 -36.6377 9.3212 12.4443 
14327 -37.3279 11.6869 12.7252 
22086 -36.7465 8.87935 14.994 
12890 -35.3701 10.8369 13.9996 
12914 -33.4012 12.4144 14.2327 
14326 -35.4058 13.2284 13.0103 
14340 -33.4343 14.8079 13.1686 
22056 -34.5439 1.15716 17.3499 
22055 -35.3162 3.59845 17.3378 
20785 -33.9669 5.58106 16.1985 
22087 -36.8492 8.43545 17.543 
22088 -36.0818 6.0276 17.3927 
20843 -34.7311 8.00628 16.3212 
14328 -37.4638 11.237 15.2741 
14344 -37.5935 10.7848 17.8218 
12916 -33.3747 10.003 15.2735 
12917 -33.4892 9.59899 17.8213 
12918 -35.4953 10.4096 16.5479 
12919 -33.5454 12.0107 16.7811 
14342 -35.5602 12.8012 15.5596 
14341 -33.6078 14.4043 15.7174 
22057 -34.5552 0.738855 19.9043 
22090 -35.3567 3.17066 19.8905 
20846 -34.0307 5.16968 18.7498 
22089 -36.1509 5.59076 19.9431 
22122 -36.9461 7.98981 20.0911 
20847 -34.823 7.5858 18.8703 
14345 -37.717 10.3307 20.3681 
12954 -33.5981 9.1931 20.368 
12920 -35.6145 9.98029 19.0951 
12952 -33.6839 11.6048 19.3283 
14343 -35.7088 12.3716 18.1079 
14361 -33.7758 13.9982 18.2653 
14363 -35.8515 11.9399 20.6549 
14362 -33.9384 13.5899 20.8117 
22092 -34.5612 0.319878 22.4594 
22091 -35.3918 2.7419 22.4435 
20851 -34.0892 4.75696 21.301 
22124 -36.2144 5.15271 22.4933 
20912 -34.1426 4.34319 23.8525 
22123 -37.0371 7.54279 22.6383 
20909 -34.9094 7.16374 21.4188 
12955 -33.701 8.78559 22.9134 
20913 -34.9903 6.74038 23.9668 
14365 -37.8344 9.87515 22.9125 
12956 -35.7277 9.54921 21.6409 
12957 -33.8167 11.1969 21.8741 
14364 -35.9883 11.5065 23.2002 
14386 -34.0954 13.1798 23.3561 
22126 -35.4215 2.31245 24.9973 
20917 -34.1909 3.92866 26.4043 
22125 -36.2725 4.71373 25.0435 
22158 -37.1225 7.09472 25.1845 
13000 -33.7981 8.37678 25.4573 
20975 -35.0658 6.31604 26.5142 
13002 -35.9357 8.68329 26.7273 
14366 -37.9454 9.41858 25.4547 
12958 -35.8348 9.11675 24.1851 
12998 -33.9438 10.7876 24.418 
13003 -34.0649 10.377 26.9597 
14388 -36.1191 11.0718 25.7435 
14387 -34.2468 12.7684 25.898 
22127 -35.446 1.88262 27.552 
22160 -36.3252 4.27411 27.5939 
20978 -34.2343 3.5137 28.9569 
22159 -37.2022 6.64593 27.7298 
13001 -33.8892 7.96706 27.9994 
20979 -35.1361 5.89106 29.0612 
13004 -36.0305 8.2493 29.2671 
14390 -38.0501 8.96146 27.9941 
13052 -34.1801 9.96589 29.4985 
14389 -36.2439 10.6364 28.2841 
14415 -34.3926 12.3561 28.4365 
20982 -33.3412 0.723475 31.4894 
22162 -35.4652 1.45273 30.1082 
22163 -35.479 1.02322 32.6666 
22161 -36.3727 3.83421 30.1449 
22196 -36.4151 3.39445 32.6969 
22195 -37.3458 5.74784 32.8175 
20983 -34.2729 3.09873 31.5106 
21041 -35.2014 5.46587 31.6081 
22194 -37.2765 6.19682 30.2741 
14391 -38.1486 8.50434 30.5298 
13054 -33.9742 7.5569 30.5394 
13056 -36.119 7.81535 31.8038 
14417 -36.3628 10.2009 30.8213 
13057 -34.2895 9.55479 32.0337 
14416 -34.5329 11.9437 30.9708 
20987 -33.347 0.320482 34.0505 
22198 -35.4877 0.59468 35.2281 
21044 -34.3071 2.68433 34.0662 
22197 -36.4527 2.95543 35.2507 
22230 -37.4104 5.29961 35.3607 
21045 -35.2623 5.04105 34.1555 
14419 -38.241 8.04791 33.061 
14420 -38.3275 7.59307 35.5864 
13055 -34.0533 7.14695 33.0769 
13116 -34.1267 6.73812 35.6118 
13058 -36.2015 7.3822 34.337 
14418 -36.476 9.76605 33.3541 
14450 -36.584 9.33302 35.8813 
13114 -34.3933 9.14468 34.5645 
14448 -34.668 11.5323 33.4995 
14449 -34.7985 11.123 36.021 
22232 -36.4859 2.51792 37.8074 
22199 -35.491 0.167923 37.7943 
21049 -34.3374 2.27128 36.6246 
22231 -37.4716 4.85294 37.9044 
21107 -35.3196 4.61741 36.7042 
14452 -38.4088 7.14099 38.1047 
13118 -36.2784 6.9509 36.8659 
13117 -34.195 6.33169 38.1437 
13119 -34.492 8.73687 37.0896 
14451 -36.6876 8.90337 38.4011 
14484 -34.9249 10.7175 38.5337 
22233 -36.5157 2.083 40.3691 
21110 -34.3647 1.86078 39.1871 
21115 -34.3904 1.45475 41.7561 
22266 -37.5308 4.40894 40.4504 
21111 -35.375 4.19611 39.2554 
21173 -35.4308 3.77898 41.8112 
14453 -38.486 6.69318 40.614 
13184 -36.419 6.10083 41.9088 
14486 -36.7885 8.47931 40.9114 
13120 -36.3503 6.523 39.39 
13182 -34.2594 5.92958 40.6727 
13180 -34.5868 8.33319 39.608 
14485 -35.0486 10.318 41.0355 
22268 -36.543 1.65235 42.9394 
21176 -34.4163 1.05701 44.3353 
22267 -37.5909 3.96917 43.0016 
13186 -36.4879 5.68812 44.422 
13183 -34.3224 5.53454 43.1988 
21177 -35.491 3.36921 44.3736 
14488 -38.5615 6.25149 43.1128 
14487 -36.8896 8.06391 43.41 
13185 -34.6797 7.93624 42.1182 
13246 -34.7743 7.5494 44.6189 
14520 -35.1712 9.92741 43.5247 
14519 -33.4331 11.7978 43.5774 
22269 -36.5689 1.22934 45.5254 
21181 -34.4399 0.681005 46.9328 
21175 -33.3778 2.8209 45.7269 
22302 -37.6558 3.53638 45.564 
13250 -36.5643 5.29284 46.9302 
14489 -38.64 5.8181 45.5998 
13248 -34.3887 5.1511 45.7221 
21239 -35.5597 2.97223 46.9439 
14522 -36.9963 7.66143 45.8954 
13251 -34.8768 7.1785 47.109 
14521 -35.2952 9.54888 46 
14554 -33.5675 11.4356 46.0556 
22338 -37.7985 2.77845 50.8344 
22305 -36.6185 0.497037 50.9013 
22304 -36.5863 0.832527 48.1448 
21243 -35.632 2.62257 49.5295 
21241 -33.411 2.20226 50.8541 
21240 -33.4288 2.47154 48.2962 
21242 -34.4748 0.361428 49.5668 
13252 -36.6694 4.92651 49.4301 
14525 -38.8647 5.07286 50.5602 
14524 -38.732 5.39695 48.076 
22303 -37.7286 3.11582 48.1469 
13314 -34.5526 4.47828 50.7543 
13249 -34.4703 4.77816 48.2394 
14558 -37.2631 6.92187 50.8343 
14523 -37.1185 7.28079 48.3692 
14557 -35.5474 8.80629 50.9008 
13312 -34.9994 6.80952 49.5818 
14590 -33.8158 10.6782 50.9568 
14556 -35.4214 9.18846 48.4618 
14555 -33.6946 11.0847 48.5211 
22340 -36.5445 0.0958301 53.4833 
22339 -37.796 2.32865 53.411 
21306 -33.3756 1.85834 53.3685 
21305 -35.6188 2.28103 52.0584 
21247 -34.4131 0.0307562 52.1196 
13316 -36.7308 4.56297 51.8953 
14560 -38.8895 4.62736 53.0081 
13315 -34.5583 4.07411 53.2405 
14559 -37.3116 6.46572 53.4109 
14592 -35.5838 8.32522 53.4828 
13374 -33.392 8.3208 52.1193 
13317 -35.1041 6.45036 52.0581 
14591 -33.8748 10.205 53.5403 
22374 -37.0795 2.40651 56.2236 
21309 -35.5393 1.96791 54.4839 
21307 -33.6275 1.40583 55.9946 
22341 -35.9903 0.0448824 56.167 
13318 -36.719 4.14898 54.2817 
14561 -38.7861 4.17063 55.4437 
14594 -36.7827 5.26597 56.2232 
13380 -34.8479 3.66864 55.9247 
13379 -33.4 7.82785 54.5453 
13378 -35.0935 5.94603 54.4837 
14593 -35.2286 7.3728 56.1654 
14626 -33.5552 9.3305 56.1803 
28489 4.49909 -32.924 -54.6982 
28488 6.95408 -33.6671 -54.6551 
28430 11.8239 -35.1467 -54.4965 
28431 9.40303 -34.4057 -54.594 
36419 13.2747 -33.1052 -54.5939 
28605 -5.35357 -29.8916 -54.7846 
28604 -2.88799 -30.6583 -54.7728 
28547 -0.423232 -31.4196 -54.7549 
28546 2.03949 -32.1749 -54.7305 
27144 5.51613 -29.6179 -54.7706 
27143 7.97942 -30.3597 -54.7387 
27091 10.4359 -31.1178 -54.6994 
36361 14.7636 -31.0465 -54.6551 
28721 -15.2006 -26.7812 -54.7729 
28720 -12.7435 -27.564 -54.7847 
28663 -10.2825 -28.3438 -54.7906 
28662 -7.81882 -29.1198 -54.7905 
27244 -4.33344 -26.6069 -54.8453 
27243 -1.87079 -27.3695 -54.8346 
27194 0.591995 -28.1253 -54.8185 
27193 3.05436 -28.8743 -54.7972 
25974 9.0324 -26.9769 -54.8044 
34968 11.928 -29.0364 -54.7387 
34967 13.4386 -26.964 -54.7707 
36303 17.7642 -26.9042 -54.7305 
36360 16.2617 -28.9794 -54.6982 
28837 -24.9647 -23.6349 -54.6551 
28836 -22.5359 -24.4209 -54.6981 
28779 -20.098 -25.2086 -54.7305 
28778 -17.6525 -25.9958 -54.755 
27294 -9.25452 -25.0622 -54.8508 
27343 -11.7109 -24.281 -54.8455 
27293 -6.79501 -25.8376 -54.8508 
26058 -0.812228 -23.971 -54.887 
26017 1.64947 -24.7251 -54.8725 
26016 4.11196 -25.474 -54.8536 
25975 6.57656 -26.221 -54.831 
33751 10.5318 -24.8972 -54.831 
34918 14.9495 -24.8913 -54.7973 
36302 19.2685 -24.8216 -54.755 
20906 -29.7727 -22.1061 -54.4965 
28895 -27.3828 -22.8551 -54.5939 
27443 -21.4915 -21.1132 -54.7707 
27394 -19.0533 -21.9097 -54.7973 
27393 -16.6108 -22.704 -54.8186 
27344 -14.1633 -23.4947 -54.8347 
26142 -10.6416 -20.8849 -54.897 
26101 -8.18821 -21.6667 -54.902 
26059 -3.2728 -23.21 -54.8969 
26100 -5.7317 -22.4419 -54.902 
25016 2.71515 -21.3282 -54.9196 
25015 5.18007 -22.0795 -54.901 
24979 7.63666 -22.8351 -54.8799 
32676 9.14031 -20.7555 -54.901 
33709 12.0454 -22.8198 -54.8537 
33708 13.5578 -20.7422 -54.8725 
34868 17.9681 -20.7303 -54.8347 
34917 16.4597 -22.8138 -54.8186 
36245 20.7731 -22.7324 -54.7729 
36244 22.277 -20.6376 -54.7847 
20907 -29.8161 -19.5748 -54.594 
19567 -26.3699 -19.541 -54.6994 
27444 -23.9293 -20.3169 -54.7387 
26227 -20.4242 -17.71 -54.831 
26184 -15.5375 -19.304 -54.8725 
26185 -17.9807 -18.5076 -54.8537 
26143 -13.0914 -20.097 -54.8871 
25084 -7.12004 -18.2695 -54.9493 
25083 -4.66486 -19.0449 -54.9492 
25050 -2.20704 -19.8128 -54.9442 
25049 0.253102 -20.5735 -54.9342 
24191 3.78814 -17.9321 -54.9616 
24190 6.24393 -18.6892 -54.943 
32675 10.6545 -18.6747 -54.9197 
33667 15.0679 -18.6609 -54.8871 
34867 19.4737 -18.641 -54.8454 
36187 23.7791 -18.538 -54.7905 
20964 -29.8704 -17.0174 -54.6551 
19619 -26.408 -16.9706 -54.7387 
18450 -22.8654 -16.9266 -54.8044 
25152 -16.9151 -15.1067 -54.901 
25151 -14.4682 -15.9038 -54.9197 
25118 -12.0214 -16.6978 -54.9343 
25117 -9.57223 -17.4869 -54.9442 
24243 -6.05003 -14.8695 -54.9951 
24242 -3.59466 -15.6456 -54.995 
24217 -1.1365 -16.4141 -54.9893 
24216 1.32419 -17.1758 -54.9779 
31819 7.74854 -16.6093 -54.9616 
32642 12.1657 -16.5929 -54.9343 
33666 16.5742 -16.5745 -54.897 
34818 20.9757 -16.5462 -54.8508 
36186 25.2785 -16.4347 -54.7905 
20965 -29.9223 -14.453 -54.6982 
21022 -29.9699 -11.8823 -54.7305 
19620 -26.4637 -14.3986 -54.7706 
19669 -26.5173 -11.8275 -54.7972 
18451 -22.9054 -14.3574 -54.831 
18492 -22.9565 -11.7826 -54.8536 
17455 -19.3577 -14.3193 -54.8799 
24295 -13.402 -12.5019 -54.9616 
24269 -10.9527 -13.2965 -54.9779 
24268 -8.50259 -14.0861 -54.9893 
23560 -0.0632521 -13.0181 -55.0311 
23577 -2.52273 -12.2482 -55.038 
23559 2.39935 -13.7813 -55.0176 
23539 4.85371 -14.5412 -55.0005 
31120 6.35755 -12.4604 -55.0175 
31792 10.7692 -12.4393 -54.9893 
31793 9.26115 -14.5254 -54.9779 
32641 13.673 -14.5075 -54.9442 
32608 15.1751 -12.4171 -54.9493 
33625 18.076 -14.4828 -54.902 
33624 19.5724 -12.3861 -54.902 
34768 23.9655 -12.3433 -54.8453 
34817 22.4733 -14.4467 -54.8508 
36129 26.7742 -14.3286 -54.7846 
36128 28.2654 -12.2206 -54.7728 
21023 -30.0126 -9.30667 -54.7549 
19670 -26.5658 -9.25421 -54.8185 
18493 -23.0053 -9.20922 -54.8725 
17491 -19.3981 -11.7495 -54.901 
17492 -19.4453 -9.17302 -54.9196 
16666 -15.845 -11.7136 -54.943 
16667 -15.8839 -9.14407 -54.9616 
16015 -12.3296 -9.10962 -55.0005 
23596 -9.88592 -9.89686 -55.0175 
23595 -7.43356 -10.6872 -55.0311 
23578 -4.97938 -11.4712 -55.038 
23088 -1.45143 -8.86237 -55.079 
23079 1.01097 -9.63376 -55.0713 
23078 3.46618 -10.3932 -55.0554 
31119 7.86703 -10.3723 -55.0311 
31767 12.2722 -10.3488 -54.9951 
32607 16.6713 -10.3217 -54.9492 
33583 21.0627 -10.2849 -54.8969 
34767 25.4518 -10.2369 -54.8346 
36071 29.751 -10.1117 -54.7549 
21080 -30.0502 -6.72731 -54.7728 
19719 -26.6081 -6.67841 -54.8346 
18534 -23.0488 -6.63498 -54.887 
17525 -19.4883 -6.59826 -54.9342 
16692 -15.9259 -6.56697 -54.9779 
16035 -12.3653 -6.54056 -55.0176 
15554 -8.8134 -6.50821 -55.0554 
23099 -6.36923 -7.29824 -55.0713 
23089 -3.91192 -8.08363 -55.079 
22771 2.07599 -6.23225 -55.1334 
30623 4.97284 -8.31277 -55.0713 
30613 6.47915 -6.21843 -55.079 
31101 10.8692 -6.18416 -55.0381 
31102 9.37104 -8.28046 -55.0381 
31766 13.769 -8.25347 -54.995 
31741 15.2595 -6.15311 -54.9893 
32574 18.1611 -8.22151 -54.9442 
32573 19.6447 -6.11684 -54.9342 
33541 24.0247 -6.07175 -54.8725 
33582 22.5468 -8.17992 -54.887 
34718 26.9317 -8.12818 -54.8185 
34717 28.405 -6.0178 -54.7972 
36013 32.7029 -5.89518 -54.6981 
36070 31.2304 -8.00291 -54.7305 
21081 -30.0829 -4.14546 -54.7846 
19720 -26.6438 -4.10063 -54.8453 
18535 -23.0854 -4.05969 -54.8969 
17526 -19.5251 -4.02349 -54.9442 
16693 -15.9619 -3.99134 -54.9893 
16036 -12.4005 -3.96267 -55.0311 
15555 -8.84985 -3.93849 -55.0713 
15247 -5.2857 -3.90025 -55.1334 
22773 -1.09226 -3.38097 -56.362 
22775 -0.384016 -5.49118 -55.1525 
22776 -2.84852 -4.71025 -55.1525 
22768 1.34432 -4.11268 -56.3442 
30300 3.59947 -4.16465 -55.1525 
30612 7.9801 -4.11902 -55.079 
31084 12.3614 -4.08298 -55.0311 
31740 16.7443 -4.04822 -54.9779 
32540 21.1233 -4.0085 -54.9196 
33540 25.4979 -3.9612 -54.8536 
34668 29.8729 -3.90628 -54.7706 
21138 -30.1108 -1.56239 -54.7905 
19769 -26.6728 -1.52183 -54.8508 
18576 -23.1148 -1.48377 -54.902 
17559 -19.5543 -1.44866 -54.9492 
16718 -15.9906 -1.41601 -54.995 
16053 -12.4283 -1.38565 -55.038 
15564 -8.87713 -1.35823 -55.079 
15244 -3.49597 -2.54941 -56.3442 
15249 -3.55302 -0.00597402 -56.362 
15251 -5.34109 -1.33165 -55.1525 
15115 -1.73103 -1.27695 -55.162 
22639 0.679538 -2.04091 -55.162 
30297 2.87797 -2.08358 -56.362 
30299 5.10375 -2.06209 -55.1525 
30603 9.47465 -2.01552 -55.0713 
31083 13.8482 -1.97673 -55.0176 
31715 18.2251 -1.93861 -54.9616 
32539 22.5996 -1.8964 -54.901 
33499 26.9699 -1.84806 -54.831 
34667 31.3396 -1.7928 -54.7387 
29676 7.84846 -35.6651 -53.358 
29643 10.2919 -36.3815 -53.2629 
29644 12.7234 -37.0245 -53.1005 
29740 -1.99112 -32.7236 -53.5034 
29707 0.475951 -33.4688 -53.4818 
29708 2.93943 -34.208 -53.4526 
28550 4.85039 -32.8929 -52.1788 
29675 5.39741 -34.9405 -53.4134 
28493 7.30871 -33.5985 -52.1363 
28492 9.76162 -34.29 -52.0754 
28429 11.3088 -33.0279 -53.3409 
28432 12.2098 -34.9392 -51.983 
36423 13.6926 -32.9182 -52.0754 
37423 14.1932 -35.0442 -53.2628 
37424 15.6541 -32.9932 -53.3579 
29804 -11.8656 -29.6944 -53.5277 
29771 -9.39878 -30.4576 -53.5306 
29772 -6.92988 -31.2173 -53.5276 
28666 -5.02129 -29.9909 -52.2617 
29739 -4.46021 -31.9729 -53.5185 
28609 -2.55069 -30.7263 -52.2505 
28608 -0.0809773 -31.4557 -52.2334 
28545 1.48374 -30.1354 -53.5125 
28551 2.3865 -32.1782 -52.21 
27197 5.85128 -29.4878 -52.2393 
28548 3.94657 -30.8671 -53.4875 
28490 8.86009 -32.3095 -53.4088 
28487 6.40617 -31.5911 -53.455 
27148 8.3118 -30.1902 -52.204 
27147 10.7673 -30.8901 -52.1543 
36420 12.7836 -30.9675 -53.4088 
36422 15.1653 -30.8594 -52.1363 
37391 17.1311 -30.9276 -53.4134 
29868 -21.6856 -26.6192 -53.4526 
29835 -19.2409 -27.3898 -53.4818 
29836 -16.7881 -28.1597 -53.5035 
28782 -14.8877 -26.9997 -52.2506 
28725 -12.426 -27.7537 -52.2619 
29803 -14.3292 -28.9282 -53.5187 
28724 -9.96017 -28.504 -52.2674 
28661 -8.37868 -27.1406 -53.5554 
28667 -7.49152 -29.2499 -52.2673 
28664 -5.91371 -27.8985 -53.5527 
27297 -4.0111 -26.6034 -52.3143 
28603 -3.44756 -28.6506 -53.5448 
27248 -1.54386 -27.3356 -52.3039 
28606 -0.981375 -29.3964 -53.5314 
27192 2.50051 -26.7655 -53.6048 
27247 0.923064 -28.0606 -52.2882 
27198 3.38858 -28.7779 -52.2671 
27195 4.96419 -27.4954 -53.5821 
27142 7.42635 -28.2239 -53.5517 
25976 9.32768 -26.8121 -52.2837 
27145 9.88887 -28.959 -53.5183 
34966 11.379 -26.8748 -53.5518 
35022 12.2423 -28.8212 -52.204 
34972 13.7253 -26.7468 -52.2394 
36359 14.2711 -28.9029 -53.4551 
36362 15.7649 -26.8297 -53.4876 
36364 18.1191 -26.6991 -52.2101 
36365 16.6406 -28.7849 -52.1789 
37359 20.1034 -26.763 -53.4818 
37392 18.6151 -28.85 -53.4526 
22120 -31.2806 -23.5419 -53.1005 
29899 -28.9431 -24.3278 -53.2628 
29900 -26.5411 -25.0834 -53.3579 
28898 -24.6627 -23.9591 -52.1363 
29867 -24.1201 -25.8498 -53.4134 
28841 -22.2338 -24.7211 -52.1789 
28777 -18.2034 -24.0623 -53.5127 
28840 -19.7933 -25.4828 -52.2101 
28780 -15.7548 -24.8377 -53.5316 
28783 -17.344 -26.2425 -52.2336 
28719 -13.3004 -25.6096 -53.5449 
27397 -13.8606 -23.6117 -52.304 
27348 -11.4034 -24.368 -52.3144 
28722 -10.8413 -26.3775 -53.5528 
27347 -8.942 -25.1191 -52.3196 
27292 -7.35193 -23.779 -53.6457 
27298 -6.47752 -25.8644 -52.3195 
27349 -7.05799 -23.8323 -51.0762 
27295 -4.89054 -24.5363 -53.643 
27296 -4.59153 -24.559 -51.0736 
26063 -0.534215 -23.9464 -52.3726 
27242 -2.42742 -25.2865 -53.6353 
27299 -2.1235 -25.2784 -51.066 
27245 0.0365448 -26.0295 -53.6225 
27246 0.345099 -25.9903 -51.0532 
26062 1.93144 -24.6695 -52.3576 
26018 6.00546 -24.0984 -53.6324 
26021 4.39689 -25.3867 -52.3374 
26019 6.27943 -23.9871 -51.0717 
25973 8.46909 -24.8352 -53.6076 
26020 6.86325 -26.0996 -52.3127 
33755 10.8111 -24.7268 -52.3127 
34969 12.875 -24.7967 -53.5822 
34971 15.2083 -24.665 -52.2672 
36301 17.2594 -24.7481 -53.5127 
36307 19.5985 -24.6045 -52.2335 
37360 21.5937 -24.6683 -53.5035 
22119 -31.4205 -21.0307 -53.2629 
20908 -29.4562 -22.4091 -51.9831 
20905 -27.9168 -20.9615 -53.3409 
28899 -27.0759 -23.1947 -52.0754 
28896 -25.5015 -21.7274 -53.4088 
28835 -23.0783 -22.5041 -53.4551 
27448 -21.1963 -21.3187 -52.2394 
27447 -18.7582 -22.0859 -52.2672 
28838 -20.645 -23.2841 -53.4876 
27398 -16.3126 -22.8508 -52.2884 
27392 -17.1627 -20.6904 -53.6049 
27342 -12.2658 -22.2454 -53.6354 
27395 -14.7166 -21.4701 -53.6226 
27396 -14.4376 -21.6142 -51.0534 
27399 -11.982 -22.3594 -51.0661 
26147 -10.382 -20.9808 -52.3828 
27345 -9.81062 -23.0152 -53.6431 
27346 -9.52181 -23.099 -51.0737 
26146 -7.92392 -21.7328 -52.3878 
26102 -3.84669 -21.1356 -53.6927 
26103 -3.59191 -21.1535 -51.1327 
26105 -5.46271 -22.4781 -52.3878 
26104 -2.99918 -23.216 -52.3827 
26057 -1.38531 -21.8851 -53.6852 
26106 -1.126 -21.8722 -51.125 
25053 2.95489 -21.2623 -52.4055 
26060 1.07758 -22.6275 -53.6729 
26061 1.34126 -22.5835 -51.1121 
25020 5.42193 -21.9819 -52.3855 
26015 3.5417 -23.3638 -53.656 
26064 3.80977 -23.288 -51.0944 
25017 7.05236 -20.7031 -53.6778 
25019 7.88677 -22.6974 -52.3629 
32714 9.3725 -20.6097 -52.3856 
33707 11.4615 -20.6651 -53.6561 
33752 9.96398 -22.749 -53.6325 
33753 10.2192 -22.5916 -51.0718 
33754 12.2977 -22.6403 -52.3375 
34916 14.3741 -22.7164 -53.6049 
34919 15.8716 -20.6309 -53.6226 
34922 16.6915 -22.5755 -52.2884 
36304 18.7535 -22.659 -53.5316 
36306 21.0777 -22.5024 -52.2506 
37327 23.0844 -22.5672 -53.5187 
22152 -31.4942 -18.4854 -53.358 
20966 -27.9902 -18.4106 -53.4088 
20968 -29.5952 -19.88 -52.0754 
19621 -24.4858 -18.3537 -53.5183 
19623 -26.051 -19.7859 -52.1543 
27442 -22.0432 -19.1269 -53.5518 
27498 -23.6275 -20.5494 -52.204 
27445 -19.6044 -19.9074 -53.5822 
26231 -20.1758 -17.9229 -52.3127 
26189 -15.2862 -19.459 -52.3578 
26230 -17.732 -18.6921 -52.3375 
26186 -13.6651 -18.0673 -53.673 
26187 -13.4287 -18.2067 -51.1122 
26188 -12.8362 -20.2226 -52.3727 
26141 -11.2154 -18.8439 -53.6853 
26190 -10.9746 -18.9531 -51.1251 
25121 -6.8956 -18.324 -52.4368 
26099 -6.30587 -20.3788 -53.6952 
26144 -8.76228 -19.6147 -53.6927 
26145 -8.5168 -19.6936 -51.1328 
26148 -6.05573 -20.4273 -51.1353 
25088 -4.43616 -19.0693 -52.4367 
25048 -0.337392 -18.4815 -53.732 
25085 -2.79818 -17.7315 -53.7401 
25086 -2.58464 -17.7381 -51.1802 
25087 -1.97422 -19.8072 -52.4315 
25089 -0.119715 -18.4574 -51.1717 
25051 2.12559 -19.2247 -53.7187 
25052 2.34755 -19.1699 -51.1579 
25054 0.489742 -20.5378 -52.4212 
24220 3.98399 -17.8558 -52.4471 
25014 4.58892 -19.9646 -53.6984 
25055 4.81673 -19.876 -51.139 
25018 7.28382 -20.5773 -51.1166 
24192 6.44761 -18.5739 -52.4275 
32674 8.54908 -18.616 -53.6985 
32715 8.75637 -18.482 -51.1391 
33756 11.6938 -20.4963 -51.0945 
32680 10.8587 -18.5177 -52.4056 
33713 13.7829 -20.5512 -52.3578 
33710 12.9603 -18.5794 -53.673 
33711 13.1659 -18.3976 -51.1122 
34920 16.0949 -20.4102 -51.0534 
34921 18.1729 -20.4787 -52.304 
33712 15.2662 -18.4571 -52.3727 
34866 17.3663 -18.5396 -53.6354 
34923 17.5624 -18.305 -51.0661 
36243 20.2461 -20.5633 -53.5449 
34872 19.6515 -18.3754 -52.3144 
36249 22.5555 -20.3942 -52.2619 
36246 21.7363 -18.4618 -53.5528 
36248 24.031 -18.2809 -52.2674 
37328 24.5743 -20.461 -53.5277 
37295 26.0625 -18.3507 -53.5306 
22151 -31.5625 -15.9304 -53.4134 
20963 -28.0653 -15.8548 -53.455 
20969 -29.6956 -17.3335 -52.1363 
21026 -29.7841 -14.7774 -52.1788 
19618 -24.5476 -15.7845 -53.5517 
19624 -26.1441 -17.2343 -52.204 
18452 -22.6174 -17.1565 -52.2837 
18449 -21.0026 -15.7291 -53.6077 
26228 -18.5566 -16.5061 -53.6325 
26229 -18.328 -16.7002 -51.0718 
25190 -16.7047 -15.2825 -52.3856 
26183 -16.1119 -17.2864 -53.6561 
26232 -15.8796 -17.4552 -51.0945 
25156 -14.2559 -16.0495 -52.4056 
25154 -12.4191 -14.7906 -51.1579 
25116 -10.165 -15.4386 -53.7321 
25122 -9.3521 -17.5716 -52.4316 
25155 -11.8055 -16.8128 -52.4213 
25157 -9.96437 -15.5371 -51.1717 
25119 -7.71224 -16.2098 -53.7402 
25120 -7.50722 -16.2776 -51.1802 
24272 -5.86558 -14.9138 -52.4826 
24247 -3.40662 -15.6596 -52.4826 
25082 -5.25659 -16.9744 -53.7429 
25123 -5.04727 -17.0115 -51.183 
24246 -0.945135 -16.3981 -52.4766 
24215 0.714204 -15.0791 -53.7742 
24221 1.51822 -17.1302 -52.4643 
24248 0.889873 -15.045 -51.2129 
24218 3.17599 -15.8249 -53.7564 
24219 3.35698 -15.7575 -51.197 
24189 5.63781 -16.566 -53.7378 
24222 5.82183 -16.4622 -51.1772 
31823 7.93334 -16.4852 -52.4471 
32677 10.0457 -16.5285 -53.7188 
32678 10.229 -16.3818 -51.1579 
32679 12.3418 -16.4231 -52.4213 
33665 14.4558 -16.4896 -53.6853 
33714 14.6341 -16.2943 -51.1251 
33671 16.7457 -16.3573 -52.3828 
34869 18.8571 -16.4426 -53.6431 
34870 19.026 -16.1938 -51.0737 
34871 21.1265 -16.2666 -52.3196 
36185 23.2231 -16.3555 -53.5554 
36191 25.5033 -16.1636 -52.2673 
37296 27.548 -16.2374 -53.5276 
22184 -31.6254 -13.3664 -53.4526 
21024 -28.1368 -13.2919 -53.4875 
21027 -29.8658 -12.2133 -52.21 
19671 -24.6156 -13.2178 -53.5821 
19673 -26.2364 -14.6771 -52.2393 
19674 -26.3222 -12.1156 -52.2671 
18496 -22.7013 -14.5926 -52.3127 
18497 -22.7855 -12.0266 -52.3374 
18494 -21.0632 -13.1584 -53.6324 
17495 -19.1493 -14.5146 -52.3629 
18495 -20.8726 -13.3845 -51.0717 
17496 -19.2306 -11.9493 -52.3855 
17493 -17.5105 -13.1048 -53.6778 
17494 -17.3194 -13.2861 -51.1166 
16668 -15.6724 -11.8717 -52.4276 
25150 -15.0631 -13.8833 -53.6985 
25191 -14.8715 -14.039 -51.1391 
24299 -13.2269 -12.6393 -52.4471 
25153 -12.6152 -14.6616 -53.7188 
24267 -9.11482 -12.0337 -53.7742 
24298 -10.7753 -13.403 -52.4644 
24300 -8.95461 -12.1227 -51.2129 
24270 -6.66149 -12.8053 -53.784 
24271 -6.49718 -12.8635 -51.2228 
24273 -8.32183 -14.1611 -52.4767 
24241 -4.20552 -13.5703 -53.7872 
24274 -4.03738 -13.5977 -51.2262 
23582 -2.3759 -12.2532 -52.5237 
24244 -1.74691 -14.3283 -53.784 
24245 -1.57508 -14.3249 -51.2227 
23581 0.0854056 -12.9929 -52.5162 
23564 2.54903 -13.7245 -52.5021 
23561 4.22552 -12.4267 -53.7925 
23562 4.36136 -12.3425 -51.2316 
23563 5.01021 -14.4457 -52.4846 
31142 6.49425 -12.3565 -52.5021 
31791 8.62806 -12.3873 -53.7742 
31820 7.13396 -14.4783 -53.7564 
31821 7.29296 -14.3659 -51.197 
31824 8.76224 -12.2624 -51.2129 
31797 10.8965 -12.2906 -52.4766 
31822 9.4172 -14.3897 -52.4644 
32640 11.5418 -14.4383 -53.7321 
32681 11.6975 -14.2779 -51.1717 
32643 13.0332 -12.3439 -53.7402 
32644 13.1611 -12.1699 -51.1802 
32646 13.8216 -14.3243 -52.4316 
32645 15.2963 -12.2205 -52.4368 
33623 17.4328 -12.2946 -53.6952 
33668 15.947 -14.3947 -53.6927 
33669 16.0979 -14.1856 -51.1328 
33672 17.5562 -12.0717 -51.1353 
33670 18.2205 -14.2519 -52.3878 
33629 19.6898 -12.1414 -52.3878 
34816 20.3433 -14.3402 -53.6457 
34873 20.4849 -14.0771 -51.0762 
34819 21.8241 -12.2333 -53.643 
34820 21.9381 -11.9559 -51.0736 
34821 24.0619 -12.0357 -52.3143 
34822 22.5969 -14.153 -52.3195 
36127 26.183 -12.1324 -53.5447 
36188 24.7056 -14.2454 -53.5527 
36190 26.9714 -14.0432 -52.2617 
36133 28.4343 -11.9208 -52.2505 
37263 29.0297 -14.1221 -53.5185 
37264 30.5067 -12.0058 -53.5034 
22183 -31.6837 -10.7951 -53.4818 
21021 -28.202 -10.7235 -53.5125 
21084 -29.9411 -9.64333 -52.2334 
19668 -24.6828 -10.6491 -53.6048 
19723 -26.402 -9.54909 -52.2882 
18538 -22.8653 -9.46021 -52.3576 
18491 -21.1259 -10.5882 -53.656 
18540 -20.9709 -10.8197 -51.0944 
17529 -19.3085 -9.38067 -52.4055 
16696 -15.7508 -9.30674 -52.4471 
17490 -17.5695 -10.5337 -53.6984 
17531 -17.4148 -10.723 -51.139 
16039 -12.1905 -9.22896 -52.4846 
16665 -14.013 -10.481 -53.7378 
16698 -13.8574 -10.624 -51.1772 
23618 -9.74494 -9.99478 -52.5021 