ITEM: TIMESTEP
203
ITEM: NUMBER OF ATOMS
37664
ITEM: BOX BOUNDS ff ff ff
-100 100
-100 100
-156.15 156.15
ITEM: ATOMS id x y z 
21986 -33.7709 -0.0718424 9.73404 
21987 -33.7689 -0.481082 12.288 
22022 -33.7617 -0.890035 14.8425 
22023 -33.7494 -1.29875 17.3977 
22058 -33.7317 -1.70741 19.9535 
22059 -33.7085 -2.11609 22.5103 
22094 -33.6798 -2.52466 25.0683 
22093 -34.5551 -0.109507 25.0077 
22095 -33.6455 -2.93275 27.628 
22128 -34.5506 -0.528902 27.5656 
22130 -33.6054 -3.33988 30.1899 
22131 -33.5592 -3.74535 32.755 
22129 -34.5405 -0.947818 30.1257 
22164 -34.5248 -1.3657 32.6887 
22166 -33.5063 -4.1481 35.3244 
22165 -34.5032 -1.78175 35.2557 
22167 -33.4456 -4.54636 37.8999 
22200 -34.4751 -2.19477 37.8285 
21048 -33.3438 -0.0893442 36.6107 
22202 -33.3748 -4.93671 40.4843 
22201 -34.4391 -2.60247 40.4098 
21053 -33.341 -0.486016 39.1815 
22234 -35.4847 -0.263229 40.3647 
21114 -33.3336 -0.876161 41.7601 
22236 -34.3923 -2.99948 43.0046 
22235 -35.4764 -0.678813 42.9504 
22237 -34.3306 -3.37429 45.6201 
22270 -35.4577 -1.07855 45.5569 
22272 -34.2562 -3.71374 48.2633 
22273 -34.2084 -4.03808 50.9958 
22271 -35.4239 -1.44231 48.1976 
22306 -35.4174 -1.77126 50.9573 
22308 -34.075 -4.39245 53.5803 
22307 -35.3133 -2.14601 53.5409 
22309 -33.4855 -4.46588 56.2135 
21308 -34.3039 -0.26168 54.5456 
22342 -34.7563 -2.22063 56.1815 
14704 -33.3861 20.2729 -38.1345 
22486 -33.3735 11.9576 -33.5735 
22514 -33.5346 14.4978 -33.5184 
22484 -33.3571 14.8938 -36.0362 
22512 -33.4931 17.4176 -35.8985 
22513 -33.7034 17.0188 -33.3744 
14705 -33.6303 19.8773 -35.6131 
14740 -33.872 19.4762 -33.0863 
22516 -33.5174 11.5594 -31.0507 
22515 -33.7099 14.0971 -30.9931 
22539 -33.911 16.6153 -30.8442 
14741 -34.11 19.0702 -30.5549 
22518 -33.4319 8.61005 -28.5201 
22517 -33.6579 11.1573 -28.5219 
22541 -33.8818 13.6922 -28.4619 
22540 -34.1146 16.2074 -28.3094 
14776 -34.3435 18.6596 -28.0197 
22519 -33.5375 8.20697 -25.9864 
22543 -33.7943 10.7515 -25.9881 
22542 -34.0495 13.2835 -25.9261 
22562 -34.3136 15.7956 -25.771 
14777 -34.5721 18.2449 -25.4815 
22521 -33.3401 5.25071 -23.4035 
22545 -33.6383 7.80051 -23.4489 
22544 -33.9262 10.3423 -23.4503 
22564 -34.2125 12.8713 -23.3868 
22563 -34.5075 15.3799 -23.23 
14812 -34.7954 17.826 -22.9408 
22547 -33.4044 4.84401 -20.8627 
22548 -33.4631 4.43569 -18.3194 
22546 -33.7339 7.39118 -20.9084 
22568 -33.8243 6.97994 -18.3652 
22566 -34.053 9.93008 -20.9094 
22567 -34.1745 9.51563 -18.366 
22565 -34.3704 12.4558 -20.8448 
22582 -34.879 14.5388 -18.1422 
22583 -34.5228 12.0378 -18.3007 
22581 -34.696 14.9608 -20.6869 
14813 -35.0133 17.4034 -20.3981 
22570 -33.5165 4.02666 -15.7742 
22569 -33.9094 6.56747 -15.82 
22585 -34.2907 9.09944 -15.8206 
22584 -34.6698 11.6176 -15.755 
22596 -35.0564 14.1143 -15.5961 
14848 -35.2256 16.9776 -17.8538 
14849 -35.4322 16.5489 -15.3082 
13846 -33.4116 15.8567 -16.5807 
22571 -33.5648 3.61718 -13.2272 
22587 -33.9892 6.15399 -13.2731 
22586 -34.4015 8.68175 -13.2738 
22598 -34.8113 11.1955 -13.208 
22597 -35.2281 13.6875 -13.049 
14884 -35.6331 16.1175 -12.7616 
13910 -33.6052 15.4496 -14.0346 
14883 -33.543 17.4222 -12.4767 
22589 -33.6079 3.20733 -10.6789 
22588 -34.0637 5.73962 -10.725 
22600 -34.5069 8.26267 -10.7259 
22599 -34.9472 10.7715 -10.6602 
22607 -35.3941 13.2584 -10.5012 
21793 -33.3476 12.5573 -11.7223 
21809 -33.5001 12.1509 -9.17446 
14885 -35.8283 15.6835 -10.2141 
13912 -33.7931 15.04 -11.4875 
14918 -33.7536 17.0126 -9.92882 
22590 -33.6459 2.79725 -8.12953 
22602 -34.1329 5.32444 -8.17589 
22601 -34.6069 7.8423 -8.17719 
22609 -35.0776 10.3458 -8.11162 
22608 -35.5545 12.8272 -7.95282 
21813 -33.6472 11.7425 -6.62604 
13976 -33.9755 14.628 -8.93986 
13978 -34.1524 14.2138 -6.39166 
14920 -36.0177 15.247 -7.66609 
14919 -33.9589 16.6006 -7.38045 
22604 -33.6788 2.38707 -5.5793 
22603 -34.1968 4.90856 -5.62608 
22613 -34.2554 4.49211 -3.07569 
22611 -34.7014 7.42074 -5.62782 
22612 -34.7904 6.99811 -3.07798 
22610 -35.2023 9.9185 -5.56258 
21821 -33.7888 11.3324 -4.07719 
22614 -35.7092 12.3941 -5.40398 
14042 -34.3237 13.7974 -3.84308 
14921 -36.2014 14.8081 -5.11759 
14954 -34.1588 16.1861 -4.83173 
21917 -33.7294 1.56687 -0.476865 
22605 -33.7066 1.97691 -3.02837 
21916 -34.3087 4.07518 -0.524857 
21946 -34.8739 6.57452 -0.527764 
21823 -33.3644 8.4396 -1.65946 
21945 -35.4351 9.05953 -0.463431 
21978 -36.0015 11.5223 -0.305439 
22616 -35.3215 9.4897 -3.01314 
21824 -33.925 10.9206 -1.52805 
14301 -36.5515 13.9239 -0.0197225 
14956 -36.3794 14.3671 -2.56876 
14044 -34.4895 13.3789 -1.29424 
22615 -35.8582 11.959 -2.85482 
14955 -34.3533 15.7692 -2.28276 
21918 -33.7472 1.15697 2.07515 
21948 -34.3567 3.65784 2.02636 
21947 -34.9521 6.15005 2.02275 
20587 -33.4653 8.03314 0.890391 
21980 -35.5432 8.62808 2.08649 
21979 -36.1391 11.0838 2.24407 
20645 -34.0557 10.5072 1.02131 
14305 -36.7178 13.4788 2.52941 
12852 -34.6497 12.9585 1.25476 
14303 -34.5423 15.3501 0.266381 
14304 -34.7259 14.9289 2.81559 
21950 -33.7601 0.747219 4.62764 
21949 -34.3995 3.24015 4.57793 
21982 -35.0249 5.72479 4.57352 
20648 -33.5609 7.62555 3.44048 
21981 -35.6457 8.19544 4.63654 
22014 -36.271 10.6439 4.79361 
20649 -34.1811 10.0922 3.5708 
14306 -36.8783 13.0317 5.07852 
12854 -34.8043 12.5363 3.8038 
14312 -34.9038 14.5056 5.36479 
21951 -33.768 0.337612 7.1806 
21984 -34.4372 2.82216 7.12983 
21983 -35.0923 5.2988 7.12451 
20653 -33.6513 7.2169 5.99075 
20714 -33.7364 6.80728 8.54118 
22016 -35.7427 7.76172 7.18668 
22015 -36.3973 10.2025 7.34312 
20711 -34.3009 9.67591 6.12033 
20715 -34.4154 9.25826 8.66985 
12868 -35.0966 11.6867 8.90161 
14314 -37.0329 12.583 7.62751 
12866 -34.9533 12.1123 6.35279 
14313 -35.0762 14.0803 7.91386 
21985 -34.4697 2.4039 9.68209 
22018 -35.1544 4.87218 9.67573 
20719 -33.8163 6.39677 11.0917 
22017 -35.8342 7.327 9.73687 
22050 -36.5178 9.75977 9.8925 
20777 -34.5244 8.83938 11.2193 
12888 -35.2342 11.2595 11.4501 
14315 -37.1815 12.1327 10.1762 
14325 -35.2428 13.6532 10.4627 
22020 -34.497 1.98546 12.2348 
22021 -34.5191 1.56691 14.7879 
22019 -35.2112 4.44498 12.2272 
22054 -35.2627 4.0173 14.779 
20780 -33.891 5.98545 13.6424 
22052 -35.9203 6.89138 12.2871 
20781 -34.628 8.41937 13.7685 
22053 -36.0008 6.45495 14.8373 
22051 -36.6326 9.31588 12.4417 
14327 -37.3241 11.6809 12.7245 
22086 -36.7416 8.87091 14.9905 
12890 -35.366 10.831 13.9982 
12914 -33.3987 12.4108 14.2323 
14326 -35.4037 13.2244 13.0112 
14340 -33.4335 14.8064 13.17 
22056 -34.5361 1.1482 17.3416 
22055 -35.309 3.58912 17.3311 
20785 -33.9605 5.57338 16.1933 
22087 -36.8449 8.42496 17.5389 
22088 -36.0759 6.01774 17.3875 
20843 -34.726 7.9983 16.3175 
14328 -37.4607 11.2278 15.2722 
14344 -37.591 10.7735 17.8191 
12916 -33.3704 9.99739 15.2715 
12917 -33.4857 9.59129 17.8187 
12918 -35.4919 10.4011 16.5456 
12919 -33.5435 12.0044 16.7797 
14342 -35.5588 12.794 15.5591 
14341 -33.6077 14.3995 15.7177 
22057 -34.5478 0.72924 19.896 
22090 -35.3499 3.1604 19.8836 
20846 -34.0248 5.16058 18.7443 
22089 -36.1455 5.57978 19.9377 
22122 -36.9423 7.97807 20.0867 
20847 -34.8186 7.57622 18.8662 
14345 -37.7151 10.3182 20.3647 
12954 -33.5953 9.18398 20.3649 
12920 -35.6118 9.97009 19.0922 
12952 -33.6826 11.5965 19.3261 
14343 -35.7079 12.3622 18.1063 
14361 -33.7762 13.991 18.2645 
14363 -35.851 11.929 20.6524 
14362 -33.9391 13.581 20.81 
22092 -34.5541 0.309965 22.4512 
22091 -35.3855 2.73113 22.4368 
20851 -34.084 4.74702 21.2955 
22124 -36.2096 5.14106 22.4879 
20912 -34.1379 4.33275 23.8471 
22123 -37.034 7.53033 22.6339 
20909 -34.9056 7.15317 21.4146 
12955 -33.699 8.77556 22.9101 
20913 -34.9871 6.72922 23.9625 
14365 -37.8329 9.86195 22.9088 
12956 -35.7256 9.53794 21.6376 
12957 -33.8159 11.1874 21.8714 
14364 -35.9881 11.4947 23.1972 
14386 -34.0962 13.1697 23.3538 
22126 -35.4157 2.3014 24.9908 
20917 -34.1868 3.91795 26.3992 
22125 -36.2682 4.70171 25.0383 
22158 -37.1199 7.08186 25.1802 
13000 -33.7966 8.3662 25.4539 
20975 -35.0632 6.30455 26.51 
13002 -35.9346 8.67106 26.7237 
14366 -37.9444 9.40505 25.4509 
12958 -35.8333 9.10485 24.1816 
12998 -33.9433 10.7771 24.415 
13003 -34.0646 10.3661 26.9564 
14388 -36.1191 11.0596 25.74 
14387 -34.2477 12.7575 25.8952 
22127 -35.4405 1.87144 27.5459 
22160 -36.3213 4.26193 27.589 
20978 -34.2305 3.5029 28.9521 
22159 -37.2 6.63291 27.7256 
13001 -33.8881 7.95619 27.9959 
20979 -35.1339 5.87945 29.0572 
13004 -36.0297 8.23697 29.2634 
14390 -38.0494 8.94783 27.9902 
13052 -34.1801 9.95469 29.4951 
14389 -36.244 10.6239 28.2804 
14415 -34.3935 12.3448 28.4334 
20982 -33.3363 0.713627 31.4837 
22162 -35.4599 1.44161 30.1025 
22163 -35.4741 1.0124 32.6615 
22161 -36.3691 3.82206 30.1404 
22196 -36.4118 3.38259 32.6928 
22195 -37.3441 5.73516 32.8139 
20983 -34.2695 3.08806 31.5062 
21041 -35.1995 5.45439 31.6044 
22194 -37.2747 6.18385 30.2701 
14391 -38.1481 8.4908 30.526 
13054 -33.9735 7.54596 30.536 
13056 -36.1185 7.80315 31.8003 
14417 -36.3631 10.1884 30.8175 
13057 -34.2897 9.54361 32.0303 
14416 -34.5338 11.9323 30.9675 
20987 -33.3423 0.311047 34.0453 
22198 -35.4829 0.584492 35.2237 
21044 -34.3039 2.67406 34.0623 
22197 -36.4496 2.94419 35.2471 
22230 -37.409 5.28756 35.3574 
21045 -35.2607 5.02998 34.1521 
14419 -38.2407 8.03469 33.0573 
14420 -38.3275 7.58047 35.583 
13055 -34.0529 7.1362 33.0737 
13116 -34.1267 6.72786 35.6089 
13058 -36.2013 7.37041 34.3337 
14418 -36.4764 9.75381 33.3503 
14450 -36.5846 9.32135 35.8775 
13114 -34.3937 9.1338 34.5612 
14448 -34.669 11.521 33.4961 
14449 -34.7995 11.1121 36.0176 
22232 -36.4831 2.50775 37.8045 
22199 -35.4865 0.158811 37.7906 
21049 -34.3345 2.26179 36.6212 
22231 -37.4703 4.84195 37.9015 
21107 -35.3183 4.60712 36.7011 
14452 -38.409 7.12943 38.1016 
13118 -36.2785 6.93989 36.8629 
13117 -34.1953 6.32231 38.1413 
13119 -34.4926 8.72662 37.0865 
14451 -36.6884 8.89265 38.3975 
14484 -34.926 10.7073 38.5304 
22233 -36.5131 2.07444 40.3669 
21110 -34.3621 1.85251 39.1844 
21115 -34.3881 1.44821 41.7541 
22266 -37.5298 4.39957 40.448 
21111 -35.3738 4.18707 39.2528 
21173 -35.4298 3.77168 41.8091 
14453 -38.4866 6.68317 40.6114 
13184 -36.4198 6.09271 41.9068 
14486 -36.7894 8.46998 40.9081 
13120 -36.3507 6.51319 39.3875 
13182 -34.2601 5.92151 40.6708 
13180 -34.5876 8.32397 39.6052 
14485 -35.0496 10.3091 41.0325 
22268 -36.5407 1.64596 42.938 
21176 -34.4144 1.05262 44.3341 
22267 -37.59 3.96198 42.9998 
13186 -36.4889 5.68217 44.4208 
13183 -34.3234 5.52822 43.1976 
21177 -35.4902 3.36412 44.3722 
14488 -38.5623 6.2436 43.1109 
14487 -36.8905 8.05645 43.4073 
13185 -34.6806 7.9285 42.1159 
13246 -34.7753 7.54357 44.6172 
14520 -35.1721 9.9201 43.5222 
14519 -33.4339 11.7906 43.5751 
22269 -36.567 1.22557 45.5248 
21181 -34.4386 0.678818 46.9324 
21175 -33.3771 2.81757 45.7259 
22302 -37.655 3.53189 45.5629 
13250 -36.5654 5.28937 46.9297 
14489 -38.6409 5.81287 45.5987 
13248 -34.3899 5.14691 45.7216 
21239 -35.5589 2.96965 46.9432 
14522 -36.9971 7.6563 45.8935 
13251 -34.8777 7.17491 47.1081 
14521 -35.2959 9.54364 45.9981 
14554 -33.5681 11.4303 46.0539 
22338 -37.7985 2.77845 50.8344 
22305 -36.6185 0.497037 50.9013 
22304 -36.5852 0.83128 48.1446 
21243 -35.6318 2.62201 49.5294 
21241 -33.411 2.20226 50.8541 
21240 -33.4285 2.47026 48.2959 
21242 -34.4743 0.360838 49.5669 
13252 -36.6698 4.92568 49.4302 
14525 -38.8647 5.07286 50.5602 
14524 -38.7328 5.39476 48.0756 
22303 -37.7278 3.11434 48.1465 
13314 -34.5526 4.47828 50.7543 
13249 -34.4711 4.77653 48.2394 
14558 -37.2631 6.92187 50.8343 
14523 -37.119 7.27825 48.3682 
14557 -35.5474 8.80629 50.9008 
13312 -34.9997 6.80879 49.5817 
14590 -33.8158 10.6782 50.9568 
14556 -35.4218 9.18554 48.4607 
14555 -33.6949 11.0815 48.5199 
22340 -36.5445 0.0958301 53.4833 
22339 -37.796 2.32865 53.411 
21306 -33.3756 1.85834 53.3685 
21305 -35.6188 2.28103 52.0584 
21247 -34.4131 0.0307562 52.1196 
13316 -36.7308 4.56297 51.8953 
14560 -38.8895 4.62736 53.0081 
13315 -34.5583 4.07411 53.2405 
14559 -37.3116 6.46572 53.4109 
14592 -35.5838 8.32522 53.4828 
13374 -33.392 8.3208 52.1193 
13317 -35.1041 6.45036 52.0581 
14591 -33.8748 10.205 53.5403 
22374 -37.0795 2.40651 56.2236 
21309 -35.5393 1.96791 54.4839 
21307 -33.6275 1.40583 55.9946 
22341 -35.9903 0.0448824 56.167 
13318 -36.719 4.14898 54.2817 
14561 -38.7861 4.17063 55.4437 
14594 -36.7827 5.26597 56.2232 
13380 -34.8479 3.66864 55.9247 
13379 -33.4 7.82785 54.5453 
13378 -35.0935 5.94603 54.4837 
14593 -35.2286 7.3728 56.1654 
14626 -33.5552 9.3305 56.1803 
28489 4.49909 -32.924 -54.6982 
28488 6.95408 -33.6671 -54.6551 
28430 11.8239 -35.1467 -54.4965 
28431 9.40303 -34.4057 -54.594 
36419 13.2747 -33.1052 -54.5939 
28605 -5.35357 -29.8916 -54.7846 
28604 -2.88799 -30.6583 -54.7728 
28547 -0.423232 -31.4196 -54.7549 
28546 2.03949 -32.1749 -54.7305 
27144 5.51613 -29.6179 -54.7706 
27143 7.97942 -30.3597 -54.7387 
27091 10.4359 -31.1178 -54.6994 
36361 14.7636 -31.0465 -54.6551 
28721 -15.2006 -26.7812 -54.7729 
28720 -12.7435 -27.564 -54.7847 
28663 -10.2825 -28.3438 -54.7906 
28662 -7.81882 -29.1198 -54.7905 
27244 -4.33344 -26.6069 -54.8453 
27243 -1.87079 -27.3695 -54.8346 
27194 0.591995 -28.1253 -54.8185 
27193 3.05436 -28.8743 -54.7972 
25974 9.0324 -26.9769 -54.8044 
34968 11.928 -29.0364 -54.7387 
34967 13.4386 -26.964 -54.7707 
36303 17.7642 -26.9042 -54.7305 
36360 16.2617 -28.9794 -54.6982 
28837 -24.9647 -23.6349 -54.6551 
28836 -22.5359 -24.4209 -54.6981 
28779 -20.098 -25.2086 -54.7305 
28778 -17.6525 -25.9958 -54.755 
27294 -9.25452 -25.0622 -54.8508 
27343 -11.7109 -24.281 -54.8455 
27293 -6.79501 -25.8376 -54.8508 
26058 -0.812228 -23.971 -54.887 
26017 1.64947 -24.7251 -54.8725 
26016 4.11196 -25.474 -54.8536 
25975 6.57656 -26.221 -54.831 
33751 10.5318 -24.8972 -54.831 
34918 14.9495 -24.8913 -54.7973 
36302 19.2685 -24.8216 -54.755 
20906 -29.7727 -22.1061 -54.4965 
28895 -27.3828 -22.8551 -54.5939 
27443 -21.4915 -21.1132 -54.7707 
27394 -19.0533 -21.9097 -54.7973 
27393 -16.6108 -22.704 -54.8186 
27344 -14.1633 -23.4947 -54.8347 
26142 -10.6416 -20.8849 -54.897 
26101 -8.18821 -21.6667 -54.902 
26059 -3.2728 -23.21 -54.8969 
26100 -5.7317 -22.4419 -54.902 
25016 2.71515 -21.3282 -54.9196 
25015 5.18007 -22.0795 -54.901 
24979 7.63666 -22.8351 -54.8799 
32676 9.14031 -20.7555 -54.901 
33709 12.0454 -22.8198 -54.8537 
33708 13.5578 -20.7422 -54.8725 
34868 17.9681 -20.7303 -54.8347 
34917 16.4597 -22.8138 -54.8186 
36245 20.7731 -22.7324 -54.7729 
36244 22.277 -20.6376 -54.7847 
20907 -29.8161 -19.5748 -54.594 
19567 -26.3699 -19.541 -54.6994 
27444 -23.9293 -20.3169 -54.7387 
26227 -20.4242 -17.71 -54.831 
26184 -15.5375 -19.304 -54.8725 
26185 -17.9807 -18.5076 -54.8537 
26143 -13.0914 -20.097 -54.8871 
25084 -7.12004 -18.2695 -54.9493 
25083 -4.66486 -19.0449 -54.9492 
25050 -2.20704 -19.8128 -54.9442 
25049 0.253102 -20.5735 -54.9342 
24191 3.78814 -17.9321 -54.9616 
24190 6.24393 -18.6892 -54.943 
32675 10.6545 -18.6747 -54.9197 
33667 15.0679 -18.6609 -54.8871 
34867 19.4737 -18.641 -54.8454 
36187 23.7791 -18.538 -54.7905 
20964 -29.8704 -17.0174 -54.6551 
19619 -26.408 -16.9706 -54.7387 
18450 -22.8654 -16.9266 -54.8044 
25152 -16.9151 -15.1067 -54.901 
25151 -14.4682 -15.9038 -54.9197 
25118 -12.0214 -16.6978 -54.9343 
25117 -9.57223 -17.4869 -54.9442 
24243 -6.05003 -14.8695 -54.9951 
24242 -3.59466 -15.6456 -54.995 
24217 -1.1365 -16.4141 -54.9893 
24216 1.32419 -17.1758 -54.9779 
31819 7.74854 -16.6093 -54.9616 
32642 12.1657 -16.5929 -54.9343 
33666 16.5742 -16.5745 -54.897 
34818 20.9757 -16.5462 -54.8508 
36186 25.2785 -16.4347 -54.7905 
20965 -29.9223 -14.453 -54.6982 
21022 -29.9699 -11.8823 -54.7305 
19620 -26.4637 -14.3986 -54.7706 
19669 -26.5173 -11.8275 -54.7972 
18451 -22.9054 -14.3574 -54.831 
18492 -22.9565 -11.7826 -54.8536 
17455 -19.3577 -14.3193 -54.8799 
24295 -13.402 -12.5019 -54.9616 
24269 -10.9527 -13.2965 -54.9779 
24268 -8.50259 -14.0861 -54.9893 
23560 -0.0632521 -13.0181 -55.0311 
23577 -2.52273 -12.2482 -55.038 
23559 2.39935 -13.7813 -55.0176 
23539 4.85371 -14.5412 -55.0005 
31120 6.35755 -12.4604 -55.0175 
31792 10.7692 -12.4393 -54.9893 
31793 9.26115 -14.5254 -54.9779 
32641 13.673 -14.5075 -54.9442 
32608 15.1751 -12.4171 -54.9493 
33625 18.076 -14.4828 -54.902 
33624 19.5724 -12.3861 -54.902 
34768 23.9655 -12.3433 -54.8453 
34817 22.4733 -14.4467 -54.8508 
36129 26.7742 -14.3286 -54.7846 
36128 28.2654 -12.2206 -54.7728 
21023 -30.0126 -9.30667 -54.7549 
19670 -26.5658 -9.25421 -54.8185 
18493 -23.0053 -9.20922 -54.8725 
17491 -19.3981 -11.7495 -54.901 
17492 -19.4453 -9.17302 -54.9196 
16666 -15.845 -11.7136 -54.943 
16667 -15.8839 -9.14407 -54.9616 
16015 -12.3296 -9.10962 -55.0005 
23596 -9.88592 -9.89686 -55.0175 
23595 -7.43356 -10.6872 -55.0311 
23578 -4.97938 -11.4712 -55.038 
23088 -1.45143 -8.86237 -55.079 
23079 1.01097 -9.63376 -55.0713 
23078 3.46618 -10.3932 -55.0554 
31119 7.86703 -10.3723 -55.0311 
31767 12.2722 -10.3488 -54.9951 
32607 16.6713 -10.3217 -54.9492 
33583 21.0627 -10.2849 -54.8969 
34767 25.4518 -10.2369 -54.8346 
36071 29.751 -10.1117 -54.7549 
21080 -30.0502 -6.72731 -54.7728 
19719 -26.6081 -6.67841 -54.8346 
18534 -23.0488 -6.63498 -54.887 
17525 -19.4883 -6.59826 -54.9342 
16692 -15.9259 -6.56697 -54.9779 
16035 -12.3653 -6.54056 -55.0176 
15554 -8.8134 -6.50821 -55.0554 
23099 -6.36923 -7.29824 -55.0713 
23089 -3.91192 -8.08363 -55.079 
22771 2.07599 -6.23225 -55.1334 
30623 4.97284 -8.31277 -55.0713 
30613 6.47915 -6.21843 -55.079 
31101 10.8692 -6.18416 -55.0381 
31102 9.37104 -8.28046 -55.0381 
31766 13.769 -8.25347 -54.995 
31741 15.2595 -6.15311 -54.9893 
32574 18.1611 -8.22151 -54.9442 
32573 19.6447 -6.11684 -54.9342 
33541 24.0247 -6.07175 -54.8725 
33582 22.5468 -8.17992 -54.887 
34718 26.9317 -8.12818 -54.8185 
34717 28.405 -6.0178 -54.7972 
36013 32.7029 -5.89518 -54.6981 
36070 31.2304 -8.00291 -54.7305 
21081 -30.0829 -4.14546 -54.7846 
19720 -26.6438 -4.10063 -54.8453 
18535 -23.0854 -4.05969 -54.8969 
17526 -19.5251 -4.02349 -54.9442 
16693 -15.9619 -3.99134 -54.9893 
16036 -12.4005 -3.96267 -55.0311 
15555 -8.84985 -3.93849 -55.0713 
15247 -5.2857 -3.90025 -55.1334 
22773 -1.09226 -3.38097 -56.362 
22775 -0.384016 -5.49118 -55.1525 
22776 -2.84852 -4.71025 -55.1525 
22768 1.34432 -4.11268 -56.3442 
30300 3.59947 -4.16465 -55.1525 
30612 7.9801 -4.11902 -55.079 
31084 12.3614 -4.08298 -55.0311 
31740 16.7443 -4.04822 -54.9779 
32540 21.1233 -4.0085 -54.9196 
33540 25.4979 -3.9612 -54.8536 
34668 29.8729 -3.90628 -54.7706 
21138 -30.1108 -1.56239 -54.7905 
19769 -26.6728 -1.52183 -54.8508 
18576 -23.1148 -1.48377 -54.902 
17559 -19.5543 -1.44866 -54.9492 
16718 -15.9906 -1.41601 -54.995 
16053 -12.4283 -1.38565 -55.038 
15564 -8.87713 -1.35823 -55.079 
15244 -3.49597 -2.54941 -56.3442 
15249 -3.55302 -0.00597402 -56.362 
15251 -5.34109 -1.33165 -55.1525 
15115 -1.73103 -1.27695 -55.162 
22639 0.679538 -2.04091 -55.162 
30297 2.87797 -2.08358 -56.362 
30299 5.10375 -2.06209 -55.1525 
30603 9.47465 -2.01552 -55.0713 
31083 13.8482 -1.97673 -55.0176 
31715 18.2251 -1.93861 -54.9616 
32539 22.5996 -1.8964 -54.901 
33499 26.9699 -1.84806 -54.831 
34667 31.3396 -1.7928 -54.7387 
29676 7.84846 -35.6651 -53.358 
29643 10.2919 -36.3815 -53.2629 
29644 12.7234 -37.0245 -53.1005 
29740 -1.99112 -32.7236 -53.5034 
29707 0.475951 -33.4688 -53.4818 
29708 2.93943 -34.208 -53.4526 
28550 4.85039 -32.8929 -52.1788 
29675 5.39741 -34.9405 -53.4134 
28493 7.30871 -33.5985 -52.1363 
28492 9.76162 -34.29 -52.0754 
28429 11.3088 -33.0279 -53.3409 
28432 12.2098 -34.9392 -51.983 
36423 13.6926 -32.9182 -52.0754 
37423 14.1932 -35.0442 -53.2628 
37424 15.6541 -32.9932 -53.3579 
29804 -11.8656 -29.6944 -53.5277 
29771 -9.39878 -30.4576 -53.5306 
29772 -6.92988 -31.2173 -53.5276 
28666 -5.02129 -29.9909 -52.2617 
29739 -4.46021 -31.9729 -53.5185 
28609 -2.55069 -30.7263 -52.2505 
28608 -0.0809773 -31.4557 -52.2334 
28545 1.48374 -30.1354 -53.5125 
28551 2.3865 -32.1782 -52.21 
27197 5.85128 -29.4878 -52.2393 
28548 3.94657 -30.8671 -53.4875 
28490 8.86009 -32.3095 -53.4088 
28487 6.40617 -31.5911 -53.455 
27148 8.3118 -30.1902 -52.204 
27147 10.7673 -30.8901 -52.1543 
36420 12.7836 -30.9675 -53.4088 
36422 15.1653 -30.8594 -52.1363 
37391 17.1311 -30.9276 -53.4134 
29868 -21.6856 -26.6192 -53.4526 
29835 -19.2409 -27.3898 -53.4818 
29836 -16.7881 -28.1597 -53.5035 
28782 -14.8877 -26.9997 -52.2506 
28725 -12.426 -27.7537 -52.2619 
29803 -14.3292 -28.9282 -53.5187 
28724 -9.96017 -28.504 -52.2674 
28661 -8.37868 -27.1406 -53.5554 
28667 -7.49152 -29.2499 -52.2673 
28664 -5.91371 -27.8985 -53.5527 
27297 -4.0111 -26.6034 -52.3143 
28603 -3.44756 -28.6506 -53.5448 
27248 -1.54386 -27.3356 -52.3039 
28606 -0.981375 -29.3964 -53.5314 
27192 2.50051 -26.7655 -53.6048 
27247 0.923064 -28.0606 -52.2882 
27198 3.38858 -28.7779 -52.2671 
27195 4.96419 -27.4954 -53.5821 
27142 7.42635 -28.2239 -53.5517 
25976 9.32768 -26.8121 -52.2837 
27145 9.88887 -28.959 -53.5183 
34966 11.379 -26.8748 -53.5518 
35022 12.2423 -28.8212 -52.204 
34972 13.7253 -26.7468 -52.2394 
36359 14.2711 -28.9029 -53.4551 
36362 15.7649 -26.8297 -53.4876 
36364 18.1191 -26.6991 -52.2101 
36365 16.6406 -28.7849 -52.1789 
37359 20.1034 -26.763 -53.4818 
37392 18.6151 -28.85 -53.4526 
22120 -31.2806 -23.5419 -53.1005 
29899 -28.9431 -24.3278 -53.2628 
29900 -26.5411 -25.0834 -53.3579 
28898 -24.6627 -23.9591 -52.1363 
29867 -24.1201 -25.8498 -53.4134 
28841 -22.2338 -24.7211 -52.1789 
28777 -18.2034 -24.0623 -53.5127 
28840 -19.7933 -25.4828 -52.2101 
28780 -15.7548 -24.8377 -53.5316 
28783 -17.344 -26.2425 -52.2336 
28719 -13.3004 -25.6096 -53.5449 
27397 -13.8606 -23.6117 -52.304 
27348 -11.4034 -24.368 -52.3144 
28722 -10.8413 -26.3775 -53.5528 
27347 -8.942 -25.1191 -52.3196 
27292 -7.35193 -23.779 -53.6457 
27298 -6.47752 -25.8644 -52.3195 
27349 -7.05799 -23.8323 -51.0762 
27295 -4.89054 -24.5363 -53.643 
27296 -4.59153 -24.559 -51.0736 
26063 -0.534215 -23.9464 -52.3726 
27242 -2.42742 -25.2865 -53.6353 
27299 -2.1235 -25.2784 -51.066 
27245 0.0365448 -26.0295 -53.6225 
27246 0.345099 -25.9903 -51.0532 
26062 1.93144 -24.6695 -52.3576 
26018 6.00546 -24.0984 -53.6324 
26021 4.39689 -25.3867 -52.3374 
26019 6.27943 -23.9871 -51.0717 
25973 8.46909 -24.8352 -53.6076 
26020 6.86325 -26.0996 -52.3127 
33755 10.8111 -24.7268 -52.3127 
34969 12.875 -24.7967 -53.5822 
34971 15.2083 -24.665 -52.2672 
36301 17.2594 -24.7481 -53.5127 
36307 19.5985 -24.6045 -52.2335 
37360 21.5937 -24.6683 -53.5035 
22119 -31.4205 -21.0307 -53.2629 
20908 -29.4562 -22.4091 -51.9831 
20905 -27.9168 -20.9615 -53.3409 
28899 -27.0759 -23.1947 -52.0754 
28896 -25.5015 -21.7274 -53.4088 
28835 -23.0783 -22.5041 -53.4551 
27448 -21.1963 -21.3187 -52.2394 
27447 -18.7582 -22.0859 -52.2672 
28838 -20.645 -23.2841 -53.4876 
27398 -16.3126 -22.8508 -52.2884 
27392 -17.1627 -20.6904 -53.6049 
27342 -12.2658 -22.2454 -53.6354 
27395 -14.7166 -21.4701 -53.6226 
27396 -14.4376 -21.6142 -51.0534 
27399 -11.982 -22.3594 -51.0661 
26147 -10.382 -20.9808 -52.3828 
27345 -9.81062 -23.0152 -53.6431 
27346 -9.52181 -23.099 -51.0737 
26146 -7.92392 -21.7328 -52.3878 
26102 -3.84669 -21.1356 -53.6927 
26103 -3.59191 -21.1535 -51.1327 
26105 -5.46271 -22.4781 -52.3878 
26104 -2.99918 -23.216 -52.3827 
26057 -1.38531 -21.8851 -53.6852 
26106 -1.126 -21.8722 -51.125 
25053 2.95489 -21.2623 -52.4055 
26060 1.07758 -22.6275 -53.6729 
26061 1.34126 -22.5835 -51.1121 
25020 5.42193 -21.9819 -52.3855 
26015 3.5417 -23.3638 -53.656 
26064 3.80977 -23.288 -51.0944 
25017 7.05236 -20.7031 -53.6778 
25019 7.88677 -22.6974 -52.3629 
32714 9.3725 -20.6097 -52.3856 
33707 11.4615 -20.6651 -53.6561 
33752 9.96398 -22.749 -53.6325 
33753 10.2192 -22.5916 -51.0718 
33754 12.2977 -22.6403 -52.3375 
34916 14.3741 -22.7164 -53.6049 
34919 15.8716 -20.6309 -53.6226 
34922 16.6915 -22.5755 -52.2884 
36304 18.7535 -22.659 -53.5316 
36306 21.0777 -22.5024 -52.2506 
37327 23.0844 -22.5672 -53.5187 
22152 -31.4942 -18.4854 -53.358 
20966 -27.9902 -18.4106 -53.4088 
20968 -29.5952 -19.88 -52.0754 
19621 -24.4858 -18.3537 -53.5183 
19623 -26.051 -19.7859 -52.1543 
27442 -22.0432 -19.1269 -53.5518 
27498 -23.6275 -20.5494 -52.204 
27445 -19.6044 -19.9074 -53.5822 
26231 -20.1758 -17.9229 -52.3127 
26189 -15.2862 -19.459 -52.3578 
26230 -17.732 -18.6921 -52.3375 
26186 -13.6651 -18.0673 -53.673 
26187 -13.4287 -18.2067 -51.1122 
26188 -12.8362 -20.2226 -52.3727 
26141 -11.2154 -18.8439 -53.6853 
26190 -10.9746 -18.9531 -51.1251 
25121 -6.8956 -18.324 -52.4368 
26099 -6.30587 -20.3788 -53.6952 
26144 -8.76228 -19.6147 -53.6927 
26145 -8.5168 -19.6936 -51.1328 
26148 -6.05573 -20.4273 -51.1353 
25088 -4.43616 -19.0693 -52.4367 
25048 -0.337392 -18.4815 -53.732 
25085 -2.79818 -17.7315 -53.7401 
25086 -2.58464 -17.7381 -51.1802 
25087 -1.97422 -19.8072 -52.4315 
25089 -0.119715 -18.4574 -51.1717 
25051 2.12559 -19.2247 -53.7187 
25052 2.34755 -19.1699 -51.1579 
25054 0.489742 -20.5378 -52.4212 
24220 3.98399 -17.8558 -52.4471 
25014 4.58892 -19.9646 -53.6984 
25055 4.81673 -19.876 -51.139 
25018 7.28382 -20.5773 -51.1166 
24192 6.44761 -18.5739 -52.4275 
32674 8.54908 -18.616 -53.6985 
32715 8.75637 -18.482 -51.1391 
33756 11.6938 -20.4963 -51.0945 
32680 10.8587 -18.5177 -52.4056 
33713 13.7829 -20.5512 -52.3578 
33710 12.9603 -18.5794 -53.673 
33711 13.1659 -18.3976 -51.1122 
34920 16.0949 -20.4102 -51.0534 
34921 18.1729 -20.4787 -52.304 
33712 15.2662 -18.4571 -52.3727 
34866 17.3663 -18.5396 -53.6354 
34923 17.5624 -18.305 -51.0661 
36243 20.2461 -20.5633 -53.5449 
34872 19.6515 -18.3754 -52.3144 
36249 22.5555 -20.3942 -52.2619 
36246 21.7363 -18.4618 -53.5528 
36248 24.031 -18.2809 -52.2674 
37328 24.5743 -20.461 -53.5277 
37295 26.0625 -18.3507 -53.5306 
22151 -31.5625 -15.9304 -53.4134 
20963 -28.0653 -15.8548 -53.455 
20969 -29.6956 -17.3335 -52.1363 
21026 -29.7841 -14.7774 -52.1788 
19618 -24.5476 -15.7845 -53.5517 
19624 -26.1441 -17.2343 -52.204 
18452 -22.6174 -17.1565 -52.2837 
18449 -21.0026 -15.7291 -53.6077 
26228 -18.5566 -16.5061 -53.6325 
26229 -18.328 -16.7002 -51.0718 
25190 -16.7047 -15.2825 -52.3856 
26183 -16.1119 -17.2864 -53.6561 
26232 -15.8796 -17.4552 -51.0945 
25156 -14.2559 -16.0495 -52.4056 
25154 -12.4191 -14.7906 -51.1579 
25116 -10.165 -15.4386 -53.7321 
25122 -9.3521 -17.5716 -52.4316 
25155 -11.8055 -16.8128 -52.4213 
25157 -9.96437 -15.5371 -51.1717 
25119 -7.71224 -16.2098 -53.7402 
25120 -7.50722 -16.2776 -51.1802 
24272 -5.86558 -14.9138 -52.4826 
24247 -3.40662 -15.6596 -52.4826 
25082 -5.25659 -16.9744 -53.7429 
25123 -5.04727 -17.0115 -51.183 
24246 -0.945135 -16.3981 -52.4766 
24215 0.714204 -15.0791 -53.7742 
24221 1.51822 -17.1302 -52.4643 
24248 0.889873 -15.045 -51.2129 
24218 3.17599 -15.8249 -53.7564 
24219 3.35698 -15.7575 -51.197 
24189 5.63781 -16.566 -53.7378 
24222 5.82183 -16.4622 -51.1772 
31823 7.93334 -16.4852 -52.4471 
32677 10.0457 -16.5285 -53.7188 
32678 10.229 -16.3818 -51.1579 
32679 12.3418 -16.4231 -52.4213 
33665 14.4558 -16.4896 -53.6853 
33714 14.6341 -16.2943 -51.1251 
33671 16.7457 -16.3573 -52.3828 
34869 18.8571 -16.4426 -53.6431 
34870 19.026 -16.1938 -51.0737 
34871 21.1265 -16.2666 -52.3196 
36185 23.2231 -16.3555 -53.5554 
36191 25.5033 -16.1636 -52.2673 
37296 27.548 -16.2374 -53.5276 
22184 -31.6254 -13.3664 -53.4526 
21024 -28.1368 -13.2919 -53.4875 
21027 -29.8658 -12.2133 -52.21 
19671 -24.6156 -13.2178 -53.5821 
19673 -26.2364 -14.6771 -52.2393 
19674 -26.3222 -12.1156 -52.2671 
18496 -22.7013 -14.5926 -52.3127 
18497 -22.7855 -12.0266 -52.3374 
18494 -21.0632 -13.1584 -53.6324 
17495 -19.1493 -14.5146 -52.3629 
18495 -20.8726 -13.3845 -51.0717 
17496 -19.2306 -11.9493 -52.3855 
17493 -17.5105 -13.1048 -53.6778 
17494 -17.3194 -13.2861 -51.1166 
16668 -15.6724 -11.8717 -52.4276 
25150 -15.0631 -13.8833 -53.6985 
25191 -14.8715 -14.039 -51.1391 
24299 -13.2269 -12.6393 -52.4471 
25153 -12.6152 -14.6616 -53.7188 
24267 -9.11482 -12.0337 -53.7742 
24298 -10.7753 -13.403 -52.4644 
24300 -8.95461 -12.1227 -51.2129 
24270 -6.66149 -12.8053 -53.784 
24271 -6.49718 -12.8635 -51.2228 
24273 -8.32183 -14.1611 -52.4767 
24241 -4.20552 -13.5703 -53.7872 
24274 -4.03738 -13.5977 -51.2262 
23582 -2.3759 -12.2532 -52.5237 
24244 -1.74691 -14.3283 -53.784 
24245 -1.57508 -14.3249 -51.2227 
23581 0.0854056 -12.9929 -52.5162 
23564 2.54903 -13.7245 -52.5021 
23561 4.22552 -12.4267 -53.7925 
23562 4.36136 -12.3425 -51.2316 
23563 5.01021 -14.4457 -52.4846 
31142 6.49425 -12.3565 -52.5021 
31791 8.62806 -12.3873 -53.7742 
31820 7.13396 -14.4783 -53.7564 
31821 7.29296 -14.3659 -51.197 
31824 8.76224 -12.2624 -51.2129 
31797 10.8965 -12.2906 -52.4766 
31822 9.4172 -14.3897 -52.4644 
32640 11.5418 -14.4383 -53.7321 
32681 11.6975 -14.2779 -51.1717 
32643 13.0332 -12.3439 -53.7402 
32644 13.1611 -12.1699 -51.1802 
32646 13.8216 -14.3243 -52.4316 
32645 15.2963 -12.2205 -52.4368 
33623 17.4328 -12.2946 -53.6952 
33668 15.947 -14.3947 -53.6927 
33669 16.0979 -14.1856 -51.1328 
33672 17.5562 -12.0717 -51.1353 
33670 18.2205 -14.2519 -52.3878 
33629 19.6898 -12.1414 -52.3878 
34816 20.3433 -14.3402 -53.6457 
34873 20.4849 -14.0771 -51.0762 
34819 21.8241 -12.2333 -53.643 
34820 21.9381 -11.9559 -51.0736 
34821 24.0619 -12.0357 -52.3143 
34822 22.5969 -14.153 -52.3195 
36127 26.183 -12.1324 -53.5447 
36188 24.7056 -14.2454 -53.5527 
36190 26.9714 -14.0432 -52.2617 
36133 28.4343 -11.9208 -52.2505 
37263 29.0297 -14.1221 -53.5185 
37264 30.5067 -12.0058 -53.5034 
22183 -31.6837 -10.7951 -53.4818 
21021 -28.202 -10.7235 -53.5125 
21084 -29.9411 -9.64333 -52.2334 
19668 -24.6828 -10.6491 -53.6048 
19723 -26.402 -9.54909 -52.2882 
18538 -22.8653 -9.46021 -52.3576 
18491 -21.1259 -10.5882 -53.656 
18540 -20.9709 -10.8197 -51.0944 
17529 -19.3085 -9.38067 -52.4055 
16696 -15.7508 -9.30674 -52.4471 
17490 -17.5695 -10.5337 -53.6984 
17531 -17.4148 -10.723 -51.139 
16039 -12.1905 -9.22896 -52.4846 
16665 -14.013 -10.481 -53.7378 
16698 -13.8574 -10.624 -51.1772 