ITEM: TIMESTEP
212
ITEM: NUMBER OF ATOMS
37664
ITEM: BOX BOUNDS ff ff ff
-100 100
-100 100
-156.15 156.15
ITEM: ATOMS id x y z 
21986 -33.7761 -0.0725606 9.73857 
21987 -33.7755 -0.477707 12.2932 
22022 -33.7686 -0.884863 14.848 
22023 -33.756 -1.29325 17.4032 
22058 -33.7379 -1.7022 19.9591 
22059 -33.7144 -2.11128 22.5158 
22094 -33.6853 -2.52014 25.0737 
22093 -34.5602 -0.104559 25.0116 
22095 -33.6508 -2.92841 27.6332 
22128 -34.5555 -0.524044 27.5694 
22130 -33.6104 -3.33565 30.1949 
22131 -33.564 -3.74125 32.7596 
22129 -34.5452 -0.943033 30.1294 
22164 -34.5293 -1.36103 32.6921 
22166 -33.5109 -4.14424 35.3286 
22165 -34.5074 -1.77732 35.2587 
22167 -33.4499 -4.5429 37.9036 
22200 -34.479 -2.19076 37.8311 
21048 -33.3467 -0.0850872 36.6127 
22202 -33.3788 -4.93387 40.4874 
22201 -34.4427 -2.59914 40.412 
21053 -33.3436 -0.482259 39.183 
22234 -35.4873 -0.259302 40.3659 
21114 -33.3358 -0.873159 41.7612 
22236 -34.3953 -2.99705 43.0062 
22235 -35.4787 -0.675888 42.9512 
22237 -34.333 -3.37286 45.6212 
22270 -35.4594 -1.07679 45.5574 
22272 -34.2574 -3.71322 48.264 
22273 -34.2084 -4.03808 50.9958 
22271 -35.4248 -1.44165 48.1977 
22306 -35.4174 -1.77126 50.9573 
22308 -34.075 -4.39245 53.5803 
22307 -35.3133 -2.14601 53.5409 
22309 -33.4855 -4.46588 56.2135 
21308 -34.3039 -0.26168 54.5456 
22342 -34.7563 -2.22063 56.1815 
14704 -33.3845 20.2777 -38.1341 
22486 -33.3733 11.9644 -33.572 
22514 -33.5334 14.5051 -33.5172 
22484 -33.3558 14.8997 -36.035 
22512 -33.4913 17.4238 -35.8974 
22513 -33.7016 17.0264 -33.3731 
14705 -33.6282 19.8837 -35.6124 
14740 -33.8696 19.4839 -33.0854 
22516 -33.5176 11.5674 -31.0492 
22515 -33.7088 14.1055 -30.9919 
22539 -33.909 16.624 -30.843 
14741 -34.1074 19.079 -30.5539 
22518 -33.4337 8.61846 -28.5177 
22517 -33.6582 11.1664 -28.5205 
22541 -33.8808 13.7016 -28.4609 
22540 -34.1126 16.2171 -28.3084 
14776 -34.3408 18.6694 -28.0188 
22519 -33.5395 8.21697 -25.9841 
22543 -33.7948 10.7619 -25.9869 
22542 -34.0486 13.294 -25.9255 
22562 -34.3116 15.8061 -25.7703 
14777 -34.5693 18.2555 -25.4806 
22521 -33.3438 5.26308 -23.3999 
22545 -33.6404 7.81283 -23.4471 
22544 -33.9268 10.3543 -23.4496 
22564 -34.2119 12.883 -23.3867 
22563 -34.5058 15.3914 -23.2296 
14812 -34.7928 17.8375 -22.9399 
22547 -33.4082 4.86043 -20.8598 
22548 -33.4672 4.45456 -18.3179 
22546 -33.7364 7.40612 -20.9071 
22568 -33.8274 6.99602 -18.3649 
22566 -34.0541 9.94368 -20.9093 
22567 -34.1765 9.52955 -18.3666 
22565 -34.3703 12.4685 -20.8451 
22582 -34.8784 14.5507 -18.1425 
22583 -34.5236 12.0503 -18.3016 
22581 -34.6948 14.973 -20.6869 
14813 -35.0108 17.4155 -20.3972 
22570 -33.5204 4.04226 -15.7745 
22569 -33.9131 6.5807 -15.8207 
22585 -34.2935 9.11088 -15.822 
22584 -34.6714 11.6279 -15.7565 
22596 -35.0564 14.1241 -15.5969 
14848 -35.2234 16.9892 -17.8529 
14849 -35.4306 16.5584 -15.3075 
13846 -33.4102 15.8663 -16.5803 
22571 -33.5669 3.62197 -13.2299 
22587 -33.9926 6.1596 -13.275 
22586 -34.4045 8.68758 -13.2759 
22598 -34.8132 11.2013 -13.21 
22597 -35.2286 13.6933 -13.0504 
14884 -35.6322 16.1233 -12.7614 
13910 -33.6042 15.4565 -14.0346 
14883 -33.5417 17.427 -12.4749 
22589 -33.6066 3.19903 -10.6836 
22588 -34.0657 5.7361 -10.7277 
22600 -34.5094 8.26187 -10.7284 
22599 -34.949 10.7722 -10.6625 
22607 -35.3949 13.2598 -10.5031 
21793 -33.3484 12.5606 -11.7239 
21809 -33.5013 12.1499 -9.17652 
14885 -35.8281 15.6849 -10.2147 
13912 -33.7928 15.0432 -11.4882 
14918 -33.7534 17.0139 -9.92765 
22590 -33.641 2.77954 -8.13518 
22602 -34.1333 5.31399 -8.17877 
22601 -34.6085 7.8362 -8.1797 
22609 -35.079 10.3421 -8.11411 
22608 -35.5553 12.8247 -7.95497 
21813 -33.6486 11.7384 -6.62832 
13976 -33.9758 14.6274 -8.94111 
13978 -34.1531 14.2103 -6.3934 
14920 -36.0181 15.2447 -7.66743 
14919 -33.9596 16.5987 -7.38024 
22604 -33.6717 2.3645 -5.58485 
22603 -34.1961 4.89419 -5.62864 
22613 -34.2544 4.47626 -3.0776 
22611 -34.7023 7.41141 -5.63009 
22612 -34.7912 6.9874 -3.07982 
22610 -35.2034 9.91203 -5.56494 
21821 -33.7904 11.3263 -4.0795 
22614 -35.7101 12.389 -5.40625 
14042 -34.3247 13.7921 -3.84513 
14921 -36.2023 14.8034 -5.11951 
14954 -34.1601 16.1819 -4.8325 
21917 -33.7233 1.54358 -0.479763 
22605 -33.6992 1.95277 -3.03294 
21916 -34.3083 4.05976 -0.525865 
21946 -34.8749 6.56395 -0.529059 
21823 -33.3667 8.43101 -1.66173 
21945 -35.4363 9.05171 -0.465173 
21978 -36.0026 11.5158 -0.307487 
22616 -35.3225 9.48192 -3.01525 
21824 -33.9267 10.9137 -1.53021 
14301 -36.5528 13.9178 -0.0222049 
14956 -36.3805 14.3611 -2.57106 
14044 -34.4908 13.3729 -1.29643 
22615 -35.8592 11.9527 -2.85704 
14955 -34.3548 15.7638 -2.28437 
21918 -33.7435 1.13691 2.07434 
21948 -34.3574 3.64466 2.0264 
21947 -34.9536 6.14103 2.02209 
20587 -33.4678 8.02492 0.88861 
21980 -35.5446 8.62139 2.08518 
21979 -36.1405 11.0783 2.2423 
20645 -34.0576 10.5006 1.0194 
14305 -36.7193 13.4736 2.52694 
12852 -34.6512 12.9528 1.25258 
14303 -34.5439 15.3445 0.264132 
14304 -34.7274 14.9239 2.81297 
21950 -33.7595 0.732904 4.629 
21949 -34.4016 3.23095 4.57908 
21982 -35.0272 5.7186 4.57356 
20648 -33.5637 7.61886 3.4393 
21981 -35.6477 8.19092 4.63575 
22014 -36.2727 10.6401 4.79224 
20649 -34.1832 10.0869 3.56925 
14306 -36.8799 13.0284 5.07628 
12854 -34.806 12.5317 3.8018 
14312 -34.9052 14.502 5.36208 
21951 -33.7706 0.33048 7.18384 
21984 -34.4409 2.8179 7.13204 
21983 -35.0956 5.2962 7.12526 
20653 -33.6545 7.21271 5.99026 
20714 -33.74 6.80598 8.54139 
22016 -35.7453 7.75999 7.18643 
22015 -36.3993 10.2012 7.34222 
20711 -34.3033 9.67265 6.11924 
20715 -34.418 9.25742 8.66926 
12868 -35.0986 11.6861 8.90035 
14314 -37.0345 12.582 7.62569 
12866 -34.9552 12.1096 6.3511 
14313 -35.0772 14.0787 7.91138 
21985 -34.4748 2.40417 9.68513 
22018 -35.1586 4.87296 9.67711 
20719 -33.8202 6.39804 11.0926 
22017 -35.8375 7.32804 9.73715 
22050 -36.5202 9.76099 9.89209 
20777 -34.5272 8.84077 11.2192 
12888 -35.2361 11.2611 11.4493 
14315 -37.1831 12.1342 10.175 
14325 -35.2436 13.6536 10.4607 
22020 -34.503 1.98879 12.2383 
22021 -34.5254 1.57175 14.7918 
22019 -35.2161 4.44823 12.2291 
22054 -35.2679 4.02195 14.7812 
20780 -33.895 5.98855 13.6437 
22052 -35.9239 6.89459 12.2878 
20781 -34.6308 8.42246 13.7688 
22053 -36.0046 6.45957 14.8383 
22051 -36.6351 9.31917 12.4417 
14327 -37.3257 11.6845 12.7238 
22086 -36.7442 8.87566 14.9909 
12890 -35.3678 10.8342 13.9978 
12914 -33.3995 12.4125 14.2315 
14326 -35.4042 13.2267 13.0098 
14340 -33.4333 14.8072 13.1684 
22056 -34.5422 1.1535 17.3456 
22055 -35.314 3.5944 17.3335 
20785 -33.9644 5.57755 16.1947 
22087 -36.8473 8.43057 17.5396 
22088 -36.0796 6.02313 17.3888 
20843 -34.7288 8.00249 16.3181 
14328 -37.462 11.2329 15.272 
14344 -37.5922 10.7795 17.8192 
12916 -33.3723 10.0001 15.2714 
12917 -33.4875 9.59495 17.8188 
12918 -35.4935 10.4055 16.5456 
12919 -33.5441 12.0073 16.7794 
14342 -35.5591 12.7977 15.5583 
14341 -33.6073 14.4017 15.7166 
22057 -34.5536 0.734496 19.9 
22090 -35.3547 3.16587 19.8861 
20846 -34.0285 5.16525 18.7459 
22089 -36.1489 5.58552 19.9391 
22122 -36.9446 7.98414 20.0876 
20847 -34.8211 7.58105 18.867 
14345 -37.7162 10.3246 20.3652 
12954 -33.5968 9.18822 20.3653 
12920 -35.6132 9.97518 19.0924 
12952 -33.6831 11.6003 19.3262 
14343 -35.7081 12.3668 18.1061 
14361 -33.7757 13.9943 18.2639 
14363 -35.8511 11.9343 20.6526 
14362 -33.9385 13.585 20.8099 
22092 -34.5596 0.315051 22.4552 
22091 -35.3899 2.73661 22.4393 
20851 -34.0874 4.75191 21.2971 
22124 -36.2127 5.14696 22.4894 
20912 -34.141 4.33775 23.8487 
22123 -37.036 7.53661 22.6348 
20909 -34.9079 7.15833 21.4154 
12955 -33.7002 8.78014 22.9106 
20913 -34.9891 6.73456 23.9634 
14365 -37.8338 9.86861 22.9095 
12956 -35.7268 9.54343 21.6381 
12957 -33.8163 11.1917 21.8717 
14364 -35.9881 11.5004 23.1976 
14386 -34.0957 13.1742 23.354 
22126 -35.4198 2.30687 24.9932 
20917 -34.1896 3.923 26.4007 
22125 -36.271 4.70767 25.0397 
22158 -37.1216 7.08824 25.1811 
13000 -33.7976 8.371 25.4544 
20975 -35.0649 6.31 26.5109 
13002 -35.9354 8.6769 26.7244 
14366 -37.9451 9.41179 25.4517 
12958 -35.8342 9.11056 24.1822 
12998 -33.9435 10.7818 24.4154 
13003 -34.0648 10.371 26.957 
14388 -36.1191 11.0654 25.7407 
14387 -34.2471 12.7623 25.8956 
22127 -35.4444 1.8769 27.5482 
22160 -36.3239 4.26792 27.5904 
20978 -34.2331 3.50799 28.9535 
22159 -37.2015 6.63933 27.7265 
13001 -33.8889 7.96112 27.9966 
20979 -35.1354 5.88496 29.0581 
13004 -36.0304 8.24285 29.2642 
14390 -38.05 8.95457 27.9911 
13052 -34.1802 9.95971 29.4959 
14389 -36.244 10.6298 28.2812 
14415 -34.393 12.3498 28.4341 
20982 -33.3397 0.718278 31.4862 
22162 -35.4636 1.44703 30.1048 
22163 -35.4775 1.01772 32.6635 
22161 -36.3715 3.82803 30.1417 
22196 -36.414 3.38846 32.694 
22195 -37.3453 5.74144 32.8148 
20983 -34.2718 3.09313 31.5076 
21041 -35.2009 5.45988 31.6053 
22194 -37.276 6.19024 30.271 
14391 -38.1486 8.49749 30.5269 
13054 -33.9742 7.55097 30.5367 
13056 -36.1191 7.809 31.8011 
14417 -36.363 10.1943 30.8184 
13057 -34.2897 9.54868 32.0312 
14416 -34.5333 11.9374 30.9683 
20987 -33.3455 0.315579 34.0476 
22198 -35.4861 0.589576 35.2255 
21044 -34.306 2.67901 34.0635 
22197 -36.4516 2.94983 35.2482 
22230 -37.41 5.29359 35.3582 
21045 -35.2618 5.03534 34.1529 
14419 -38.2411 8.04124 33.0583 
14420 -38.3277 7.58677 35.584 
13055 -34.0535 7.14119 33.0744 
13116 -34.127 6.73271 35.6095 
13058 -36.2017 7.37613 34.3345 
14418 -36.4763 9.75966 33.3514 
14450 -36.5844 9.32699 35.8787 
13114 -34.3936 9.13882 34.562 
14448 -34.6685 11.5261 33.497 
14449 -34.7989 11.1171 36.0186 
22232 -36.4849 2.51294 37.8054 
22199 -35.4894 0.163453 37.7921 
21049 -34.3363 2.26647 36.6222 
22231 -37.4712 4.84754 37.9023 
21107 -35.3192 4.61219 36.7019 
14452 -38.4091 7.13528 38.1026 
13118 -36.2787 6.9453 36.8638 
13117 -34.1955 6.32683 38.1418 
13119 -34.4924 8.73143 37.0874 
14451 -36.6881 8.89791 38.3987 
14484 -34.9254 10.7121 38.5315 
22233 -36.5146 2.07891 40.3676 
21110 -34.3637 1.85668 39.1852 
21115 -34.3895 1.4516 41.7547 
22266 -37.5304 4.40442 40.4487 
21111 -35.3746 4.19162 39.2535 
21173 -35.4304 3.77544 41.8096 
14453 -38.4865 6.68831 40.6123 
13184 -36.4196 6.09685 41.9074 
14486 -36.789 8.47463 40.9093 
13120 -36.3508 6.5181 39.3882 
13182 -34.26 5.92549 40.6713 
13180 -34.5873 8.32838 39.6061 
14485 -35.049 10.3133 41.0336 
22268 -36.542 1.64938 42.9383 
21176 -34.4155 1.05498 44.3344 
22267 -37.5905 3.96578 43.0003 
13186 -36.4885 5.68526 44.4212 
13183 -34.3231 5.5314 43.1979 
21177 -35.4906 3.36682 44.3725 
14488 -38.562 6.24773 43.1116 
14487 -36.89 8.06023 43.4084 
13185 -34.6802 7.93227 42.1167 
13246 -34.7748 7.54647 44.6178 
14520 -35.1715 9.92367 43.5231 
14519 -33.4334 11.794 43.5759 
22269 -36.568 1.22768 45.5248 
21181 -34.4393 0.680062 46.9324 
21175 -33.3775 2.81934 45.7261 
22302 -37.6554 3.53435 45.5632 
13250 -36.5649 5.29122 46.9298 
14489 -38.6405 5.81567 45.5991 
13248 -34.3894 5.14907 45.7217 
21239 -35.5593 2.97108 46.9433 
14522 -36.9966 7.65895 45.8943 
13251 -34.8772 7.17673 47.1085 
14521 -35.2954 9.54624 45.9989 
14554 -33.5677 11.4328 46.0545 
22338 -37.7985 2.77845 50.8344 
22305 -36.6185 0.497037 50.9013 
22304 -36.5857 0.832065 48.1445 
21243 -35.6319 2.62235 49.5294 
21241 -33.411 2.20226 50.8541 
21240 -33.4287 2.47099 48.2959 
21242 -34.4746 0.36121 49.5668 
13252 -36.6696 4.92616 49.4301 
14525 -38.8647 5.07286 50.5602 
14524 -38.7324 5.396 48.0758 
22303 -37.7282 3.11524 48.1465 
13314 -34.5526 4.47828 50.7543 
13249 -34.4707 4.77741 48.2393 
14558 -37.2631 6.92187 50.8343 
14523 -37.1187 7.2796 48.3687 
14557 -35.5474 8.80629 50.9008 
13312 -34.9995 6.80918 49.5817 
14590 -33.8158 10.6782 50.9568 
14556 -35.4215 9.18701 48.4611 
14555 -33.6947 11.0831 48.5204 
22340 -36.5445 0.0958301 53.4833 
22339 -37.796 2.32865 53.411 
21306 -33.3756 1.85834 53.3685 
21305 -35.6188 2.28103 52.0584 
21247 -34.4131 0.0307562 52.1196 
13316 -36.7308 4.56297 51.8953 
14560 -38.8895 4.62736 53.0081 
13315 -34.5583 4.07411 53.2405 
14559 -37.3116 6.46572 53.4109 
14592 -35.5838 8.32522 53.4828 
13374 -33.392 8.3208 52.1193 
13317 -35.1041 6.45036 52.0581 
14591 -33.8748 10.205 53.5403 
22374 -37.0795 2.40651 56.2236 
21309 -35.5393 1.96791 54.4839 
21307 -33.6275 1.40583 55.9946 
22341 -35.9903 0.0448824 56.167 
13318 -36.719 4.14898 54.2817 
14561 -38.7861 4.17063 55.4437 
14594 -36.7827 5.26597 56.2232 
13380 -34.8479 3.66864 55.9247 
13379 -33.4 7.82785 54.5453 
13378 -35.0935 5.94603 54.4837 
14593 -35.2286 7.3728 56.1654 
14626 -33.5552 9.3305 56.1803 
28489 4.49909 -32.924 -54.6982 
28488 6.95408 -33.6671 -54.6551 
28430 11.8239 -35.1467 -54.4965 
28431 9.40303 -34.4057 -54.594 
36419 13.2747 -33.1052 -54.5939 
28605 -5.35357 -29.8916 -54.7846 
28604 -2.88799 -30.6583 -54.7728 
28547 -0.423232 -31.4196 -54.7549 
28546 2.03949 -32.1749 -54.7305 
27144 5.51613 -29.6179 -54.7706 
27143 7.97942 -30.3597 -54.7387 
27091 10.4359 -31.1178 -54.6994 
36361 14.7636 -31.0465 -54.6551 
28721 -15.2006 -26.7812 -54.7729 
28720 -12.7435 -27.564 -54.7847 
28663 -10.2825 -28.3438 -54.7906 
28662 -7.81882 -29.1198 -54.7905 
27244 -4.33344 -26.6069 -54.8453 
27243 -1.87079 -27.3695 -54.8346 
27194 0.591995 -28.1253 -54.8185 
27193 3.05436 -28.8743 -54.7972 
25974 9.0324 -26.9769 -54.8044 
34968 11.928 -29.0364 -54.7387 
34967 13.4386 -26.964 -54.7707 
36303 17.7642 -26.9042 -54.7305 
36360 16.2617 -28.9794 -54.6982 
28837 -24.9647 -23.6349 -54.6551 
28836 -22.5359 -24.4209 -54.6981 
28779 -20.098 -25.2086 -54.7305 
28778 -17.6525 -25.9958 -54.755 
27294 -9.25452 -25.0622 -54.8508 
27343 -11.7109 -24.281 -54.8455 
27293 -6.79501 -25.8376 -54.8508 
26058 -0.812228 -23.971 -54.887 
26017 1.64947 -24.7251 -54.8725 
26016 4.11196 -25.474 -54.8536 
25975 6.57656 -26.221 -54.831 
33751 10.5318 -24.8972 -54.831 
34918 14.9495 -24.8913 -54.7973 
36302 19.2685 -24.8216 -54.755 
20906 -29.7727 -22.1061 -54.4965 
28895 -27.3828 -22.8551 -54.5939 
27443 -21.4915 -21.1132 -54.7707 
27394 -19.0533 -21.9097 -54.7973 
27393 -16.6108 -22.704 -54.8186 
27344 -14.1633 -23.4947 -54.8347 
26142 -10.6416 -20.8849 -54.897 
26101 -8.18821 -21.6667 -54.902 
26059 -3.2728 -23.21 -54.8969 
26100 -5.7317 -22.4419 -54.902 
25016 2.71515 -21.3282 -54.9196 
25015 5.18007 -22.0795 -54.901 
24979 7.63666 -22.8351 -54.8799 
32676 9.14031 -20.7555 -54.901 
33709 12.0454 -22.8198 -54.8537 
33708 13.5578 -20.7422 -54.8725 
34868 17.9681 -20.7303 -54.8347 
34917 16.4597 -22.8138 -54.8186 
36245 20.7731 -22.7324 -54.7729 
36244 22.277 -20.6376 -54.7847 
20907 -29.8161 -19.5748 -54.594 
19567 -26.3699 -19.541 -54.6994 
27444 -23.9293 -20.3169 -54.7387 
26227 -20.4242 -17.71 -54.831 
26184 -15.5375 -19.304 -54.8725 
26185 -17.9807 -18.5076 -54.8537 
26143 -13.0914 -20.097 -54.8871 
25084 -7.12004 -18.2695 -54.9493 
25083 -4.66486 -19.0449 -54.9492 
25050 -2.20704 -19.8128 -54.9442 
25049 0.253102 -20.5735 -54.9342 
24191 3.78814 -17.9321 -54.9616 
24190 6.24393 -18.6892 -54.943 
32675 10.6545 -18.6747 -54.9197 
33667 15.0679 -18.6609 -54.8871 
34867 19.4737 -18.641 -54.8454 
36187 23.7791 -18.538 -54.7905 
20964 -29.8704 -17.0174 -54.6551 
19619 -26.408 -16.9706 -54.7387 
18450 -22.8654 -16.9266 -54.8044 
25152 -16.9151 -15.1067 -54.901 
25151 -14.4682 -15.9038 -54.9197 
25118 -12.0214 -16.6978 -54.9343 
25117 -9.57223 -17.4869 -54.9442 
24243 -6.05003 -14.8695 -54.9951 
24242 -3.59466 -15.6456 -54.995 
24217 -1.1365 -16.4141 -54.9893 
24216 1.32419 -17.1758 -54.9779 
31819 7.74854 -16.6093 -54.9616 
32642 12.1657 -16.5929 -54.9343 
33666 16.5742 -16.5745 -54.897 
34818 20.9757 -16.5462 -54.8508 
36186 25.2785 -16.4347 -54.7905 
20965 -29.9223 -14.453 -54.6982 
21022 -29.9699 -11.8823 -54.7305 
19620 -26.4637 -14.3986 -54.7706 
19669 -26.5173 -11.8275 -54.7972 
18451 -22.9054 -14.3574 -54.831 
18492 -22.9565 -11.7826 -54.8536 
17455 -19.3577 -14.3193 -54.8799 
24295 -13.402 -12.5019 -54.9616 
24269 -10.9527 -13.2965 -54.9779 
24268 -8.50259 -14.0861 -54.9893 
23560 -0.0632521 -13.0181 -55.0311 
23577 -2.52273 -12.2482 -55.038 
23559 2.39935 -13.7813 -55.0176 
23539 4.85371 -14.5412 -55.0005 
31120 6.35755 -12.4604 -55.0175 
31792 10.7692 -12.4393 -54.9893 
31793 9.26115 -14.5254 -54.9779 
32641 13.673 -14.5075 -54.9442 
32608 15.1751 -12.4171 -54.9493 
33625 18.076 -14.4828 -54.902 
33624 19.5724 -12.3861 -54.902 
34768 23.9655 -12.3433 -54.8453 
34817 22.4733 -14.4467 -54.8508 
36129 26.7742 -14.3286 -54.7846 
36128 28.2654 -12.2206 -54.7728 
21023 -30.0126 -9.30667 -54.7549 
19670 -26.5658 -9.25421 -54.8185 
18493 -23.0053 -9.20922 -54.8725 
17491 -19.3981 -11.7495 -54.901 
17492 -19.4453 -9.17302 -54.9196 
16666 -15.845 -11.7136 -54.943 
16667 -15.8839 -9.14407 -54.9616 
16015 -12.3296 -9.10962 -55.0005 
23596 -9.88592 -9.89686 -55.0175 
23595 -7.43356 -10.6872 -55.0311 
23578 -4.97938 -11.4712 -55.038 
23088 -1.45143 -8.86237 -55.079 
23079 1.01097 -9.63376 -55.0713 
23078 3.46618 -10.3932 -55.0554 
31119 7.86703 -10.3723 -55.0311 
31767 12.2722 -10.3488 -54.9951 
32607 16.6713 -10.3217 -54.9492 
33583 21.0627 -10.2849 -54.8969 
34767 25.4518 -10.2369 -54.8346 
36071 29.751 -10.1117 -54.7549 
21080 -30.0502 -6.72731 -54.7728 
19719 -26.6081 -6.67841 -54.8346 
18534 -23.0488 -6.63498 -54.887 
17525 -19.4883 -6.59826 -54.9342 
16692 -15.9259 -6.56697 -54.9779 
16035 -12.3653 -6.54056 -55.0176 
15554 -8.8134 -6.50821 -55.0554 
23099 -6.36923 -7.29824 -55.0713 
23089 -3.91192 -8.08363 -55.079 
22771 2.07599 -6.23225 -55.1334 
30623 4.97284 -8.31277 -55.0713 
30613 6.47915 -6.21843 -55.079 
31101 10.8692 -6.18416 -55.0381 
31102 9.37104 -8.28046 -55.0381 
31766 13.769 -8.25347 -54.995 
31741 15.2595 -6.15311 -54.9893 
32574 18.1611 -8.22151 -54.9442 
32573 19.6447 -6.11684 -54.9342 
33541 24.0247 -6.07175 -54.8725 
33582 22.5468 -8.17992 -54.887 
34718 26.9317 -8.12818 -54.8185 
34717 28.405 -6.0178 -54.7972 
36013 32.7029 -5.89518 -54.6981 
36070 31.2304 -8.00291 -54.7305 
21081 -30.0829 -4.14546 -54.7846 
19720 -26.6438 -4.10063 -54.8453 
18535 -23.0854 -4.05969 -54.8969 
17526 -19.5251 -4.02349 -54.9442 
16693 -15.9619 -3.99134 -54.9893 
16036 -12.4005 -3.96267 -55.0311 
15555 -8.84985 -3.93849 -55.0713 
15247 -5.2857 -3.90025 -55.1334 
22773 -1.09226 -3.38097 -56.362 
22775 -0.384016 -5.49118 -55.1525 
22776 -2.84852 -4.71025 -55.1525 
22768 1.34432 -4.11268 -56.3442 
30300 3.59947 -4.16465 -55.1525 
30612 7.9801 -4.11902 -55.079 
31084 12.3614 -4.08298 -55.0311 
31740 16.7443 -4.04822 -54.9779 
32540 21.1233 -4.0085 -54.9196 
33540 25.4979 -3.9612 -54.8536 
34668 29.8729 -3.90628 -54.7706 
21138 -30.1108 -1.56239 -54.7905 
19769 -26.6728 -1.52183 -54.8508 
18576 -23.1148 -1.48377 -54.902 
17559 -19.5543 -1.44866 -54.9492 
16718 -15.9906 -1.41601 -54.995 
16053 -12.4283 -1.38565 -55.038 
15564 -8.87713 -1.35823 -55.079 
15244 -3.49597 -2.54941 -56.3442 
15249 -3.55302 -0.00597402 -56.362 
15251 -5.34109 -1.33165 -55.1525 
15115 -1.73103 -1.27695 -55.162 
22639 0.679538 -2.04091 -55.162 
30297 2.87797 -2.08358 -56.362 
30299 5.10375 -2.06209 -55.1525 
30603 9.47465 -2.01552 -55.0713 
31083 13.8482 -1.97673 -55.0176 
31715 18.2251 -1.93861 -54.9616 
32539 22.5996 -1.8964 -54.901 
33499 26.9699 -1.84806 -54.831 
34667 31.3396 -1.7928 -54.7387 
29676 7.84846 -35.6651 -53.358 
29643 10.2919 -36.3815 -53.2629 
29644 12.7234 -37.0245 -53.1005 
29740 -1.99112 -32.7236 -53.5034 
29707 0.475951 -33.4688 -53.4818 
29708 2.93943 -34.208 -53.4526 
28550 4.85039 -32.8929 -52.1788 
29675 5.39741 -34.9405 -53.4134 
28493 7.30871 -33.5985 -52.1363 
28492 9.76162 -34.29 -52.0754 
28429 11.3088 -33.0279 -53.3409 
28432 12.2098 -34.9392 -51.983 
36423 13.6926 -32.9182 -52.0754 
37423 14.1932 -35.0442 -53.2628 
37424 15.6541 -32.9932 -53.3579 
29804 -11.8656 -29.6944 -53.5277 
29771 -9.39878 -30.4576 -53.5306 
29772 -6.92988 -31.2173 -53.5276 
28666 -5.02129 -29.9909 -52.2617 
29739 -4.46021 -31.9729 -53.5185 
28609 -2.55069 -30.7263 -52.2505 
28608 -0.0809773 -31.4557 -52.2334 
28545 1.48374 -30.1354 -53.5125 
28551 2.3865 -32.1782 -52.21 
27197 5.85128 -29.4878 -52.2393 
28548 3.94657 -30.8671 -53.4875 
28490 8.86009 -32.3095 -53.4088 
28487 6.40617 -31.5911 -53.455 
27148 8.3118 -30.1902 -52.204 
27147 10.7673 -30.8901 -52.1543 
36420 12.7836 -30.9675 -53.4088 
36422 15.1653 -30.8594 -52.1363 
37391 17.1311 -30.9276 -53.4134 
29868 -21.6856 -26.6192 -53.4526 
29835 -19.2409 -27.3898 -53.4818 
29836 -16.7881 -28.1597 -53.5035 
28782 -14.8877 -26.9997 -52.2506 
28725 -12.426 -27.7537 -52.2619 
29803 -14.3292 -28.9282 -53.5187 
28724 -9.96017 -28.504 -52.2674 
28661 -8.37868 -27.1406 -53.5554 
28667 -7.49152 -29.2499 -52.2673 
28664 -5.91371 -27.8985 -53.5527 
27297 -4.0111 -26.6034 -52.3143 
28603 -3.44756 -28.6506 -53.5448 
27248 -1.54386 -27.3356 -52.3039 
28606 -0.981375 -29.3964 -53.5314 
27192 2.50051 -26.7655 -53.6048 
27247 0.923064 -28.0606 -52.2882 
27198 3.38858 -28.7779 -52.2671 
27195 4.96419 -27.4954 -53.5821 
27142 7.42635 -28.2239 -53.5517 
25976 9.32768 -26.8121 -52.2837 
27145 9.88887 -28.959 -53.5183 
34966 11.379 -26.8748 -53.5518 
35022 12.2423 -28.8212 -52.204 
34972 13.7253 -26.7468 -52.2394 
36359 14.2711 -28.9029 -53.4551 
36362 15.7649 -26.8297 -53.4876 
36364 18.1191 -26.6991 -52.2101 
36365 16.6406 -28.7849 -52.1789 
37359 20.1034 -26.763 -53.4818 
37392 18.6151 -28.85 -53.4526 
22120 -31.2806 -23.5419 -53.1005 
29899 -28.9431 -24.3278 -53.2628 
29900 -26.5411 -25.0834 -53.3579 
28898 -24.6627 -23.9591 -52.1363 
29867 -24.1201 -25.8498 -53.4134 
28841 -22.2338 -24.7211 -52.1789 
28777 -18.2034 -24.0623 -53.5127 
28840 -19.7933 -25.4828 -52.2101 
28780 -15.7548 -24.8377 -53.5316 
28783 -17.344 -26.2425 -52.2336 
28719 -13.3004 -25.6096 -53.5449 
27397 -13.8606 -23.6117 -52.304 
27348 -11.4034 -24.368 -52.3144 
28722 -10.8413 -26.3775 -53.5528 
27347 -8.942 -25.1191 -52.3196 
27292 -7.35193 -23.779 -53.6457 
27298 -6.47752 -25.8644 -52.3195 
27349 -7.05799 -23.8323 -51.0762 
27295 -4.89054 -24.5363 -53.643 
27296 -4.59153 -24.559 -51.0736 
26063 -0.534215 -23.9464 -52.3726 
27242 -2.42742 -25.2865 -53.6353 
27299 -2.1235 -25.2784 -51.066 
27245 0.0365448 -26.0295 -53.6225 
27246 0.345099 -25.9903 -51.0532 
26062 1.93144 -24.6695 -52.3576 
26018 6.00546 -24.0984 -53.6324 
26021 4.39689 -25.3867 -52.3374 
26019 6.27943 -23.9871 -51.0717 
25973 8.46909 -24.8352 -53.6076 
26020 6.86325 -26.0996 -52.3127 
33755 10.8111 -24.7268 -52.3127 
34969 12.875 -24.7967 -53.5822 
34971 15.2083 -24.665 -52.2672 
36301 17.2594 -24.7481 -53.5127 
36307 19.5985 -24.6045 -52.2335 
37360 21.5937 -24.6683 -53.5035 
22119 -31.4205 -21.0307 -53.2629 
20908 -29.4562 -22.4091 -51.9831 
20905 -27.9168 -20.9615 -53.3409 
28899 -27.0759 -23.1947 -52.0754 
28896 -25.5015 -21.7274 -53.4088 
28835 -23.0783 -22.5041 -53.4551 
27448 -21.1963 -21.3187 -52.2394 
27447 -18.7582 -22.0859 -52.2672 
28838 -20.645 -23.2841 -53.4876 
27398 -16.3126 -22.8508 -52.2884 
27392 -17.1627 -20.6904 -53.6049 
27342 -12.2658 -22.2454 -53.6354 
27395 -14.7166 -21.4701 -53.6226 
27396 -14.4376 -21.6142 -51.0534 
27399 -11.982 -22.3594 -51.0661 
26147 -10.382 -20.9808 -52.3828 
27345 -9.81062 -23.0152 -53.6431 
27346 -9.52181 -23.099 -51.0737 
26146 -7.92392 -21.7328 -52.3878 
26102 -3.84669 -21.1356 -53.6927 
26103 -3.59191 -21.1535 -51.1327 
26105 -5.46271 -22.4781 -52.3878 
26104 -2.99918 -23.216 -52.3827 
26057 -1.38531 -21.8851 -53.6852 
26106 -1.126 -21.8722 -51.125 
25053 2.95489 -21.2623 -52.4055 
26060 1.07758 -22.6275 -53.6729 
26061 1.34126 -22.5835 -51.1121 
25020 5.42193 -21.9819 -52.3855 
26015 3.5417 -23.3638 -53.656 
26064 3.80977 -23.288 -51.0944 
25017 7.05236 -20.7031 -53.6778 
25019 7.88677 -22.6974 -52.3629 
32714 9.3725 -20.6097 -52.3856 
33707 11.4615 -20.6651 -53.6561 
33752 9.96398 -22.749 -53.6325 
33753 10.2192 -22.5916 -51.0718 
33754 12.2977 -22.6403 -52.3375 
34916 14.3741 -22.7164 -53.6049 
34919 15.8716 -20.6309 -53.6226 
34922 16.6915 -22.5755 -52.2884 
36304 18.7535 -22.659 -53.5316 
36306 21.0777 -22.5024 -52.2506 
37327 23.0844 -22.5672 -53.5187 
22152 -31.4942 -18.4854 -53.358 
20966 -27.9902 -18.4106 -53.4088 
20968 -29.5952 -19.88 -52.0754 
19621 -24.4858 -18.3537 -53.5183 
19623 -26.051 -19.7859 -52.1543 
27442 -22.0432 -19.1269 -53.5518 
27498 -23.6275 -20.5494 -52.204 
27445 -19.6044 -19.9074 -53.5822 
26231 -20.1758 -17.9229 -52.3127 
26189 -15.2862 -19.459 -52.3578 
26230 -17.732 -18.6921 -52.3375 
26186 -13.6651 -18.0673 -53.673 
26187 -13.4287 -18.2067 -51.1122 
26188 -12.8362 -20.2226 -52.3727 
26141 -11.2154 -18.8439 -53.6853 
26190 -10.9746 -18.9531 -51.1251 
25121 -6.8956 -18.324 -52.4368 
26099 -6.30587 -20.3788 -53.6952 
26144 -8.76228 -19.6147 -53.6927 
26145 -8.5168 -19.6936 -51.1328 
26148 -6.05573 -20.4273 -51.1353 
25088 -4.43616 -19.0693 -52.4367 
25048 -0.337392 -18.4815 -53.732 
25085 -2.79818 -17.7315 -53.7401 
25086 -2.58464 -17.7381 -51.1802 
25087 -1.97422 -19.8072 -52.4315 
25089 -0.119715 -18.4574 -51.1717 
25051 2.12559 -19.2247 -53.7187 
25052 2.34755 -19.1699 -51.1579 
25054 0.489742 -20.5378 -52.4212 
24220 3.98399 -17.8558 -52.4471 
25014 4.58892 -19.9646 -53.6984 
25055 4.81673 -19.876 -51.139 
25018 7.28382 -20.5773 -51.1166 
24192 6.44761 -18.5739 -52.4275 
32674 8.54908 -18.616 -53.6985 
32715 8.75637 -18.482 -51.1391 
33756 11.6938 -20.4963 -51.0945 
32680 10.8587 -18.5177 -52.4056 
33713 13.7829 -20.5512 -52.3578 
33710 12.9603 -18.5794 -53.673 
33711 13.1659 -18.3976 -51.1122 
34920 16.0949 -20.4102 -51.0534 
34921 18.1729 -20.4787 -52.304 
33712 15.2662 -18.4571 -52.3727 
34866 17.3663 -18.5396 -53.6354 
34923 17.5624 -18.305 -51.0661 
36243 20.2461 -20.5633 -53.5449 
34872 19.6515 -18.3754 -52.3144 
36249 22.5555 -20.3942 -52.2619 
36246 21.7363 -18.4618 -53.5528 
36248 24.031 -18.2809 -52.2674 
37328 24.5743 -20.461 -53.5277 
37295 26.0625 -18.3507 -53.5306 
22151 -31.5625 -15.9304 -53.4134 
20963 -28.0653 -15.8548 -53.455 
20969 -29.6956 -17.3335 -52.1363 
21026 -29.7841 -14.7774 -52.1788 
19618 -24.5476 -15.7845 -53.5517 
19624 -26.1441 -17.2343 -52.204 
18452 -22.6174 -17.1565 -52.2837 
18449 -21.0026 -15.7291 -53.6077 
26228 -18.5566 -16.5061 -53.6325 
26229 -18.328 -16.7002 -51.0718 
25190 -16.7047 -15.2825 -52.3856 
26183 -16.1119 -17.2864 -53.6561 
26232 -15.8796 -17.4552 -51.0945 
25156 -14.2559 -16.0495 -52.4056 
25154 -12.4191 -14.7906 -51.1579 
25116 -10.165 -15.4386 -53.7321 
25122 -9.3521 -17.5716 -52.4316 
25155 -11.8055 -16.8128 -52.4213 
25157 -9.96437 -15.5371 -51.1717 
25119 -7.71224 -16.2098 -53.7402 
25120 -7.50722 -16.2776 -51.1802 
24272 -5.86558 -14.9138 -52.4826 
24247 -3.40662 -15.6596 -52.4826 
25082 -5.25659 -16.9744 -53.7429 
25123 -5.04727 -17.0115 -51.183 
24246 -0.945135 -16.3981 -52.4766 
24215 0.714204 -15.0791 -53.7742 
24221 1.51822 -17.1302 -52.4643 
24248 0.889873 -15.045 -51.2129 
24218 3.17599 -15.8249 -53.7564 
24219 3.35698 -15.7575 -51.197 
24189 5.63781 -16.566 -53.7378 
24222 5.82183 -16.4622 -51.1772 
31823 7.93334 -16.4852 -52.4471 
32677 10.0457 -16.5285 -53.7188 
32678 10.229 -16.3818 -51.1579 
32679 12.3418 -16.4231 -52.4213 
33665 14.4558 -16.4896 -53.6853 
33714 14.6341 -16.2943 -51.1251 
33671 16.7457 -16.3573 -52.3828 
34869 18.8571 -16.4426 -53.6431 
34870 19.026 -16.1938 -51.0737 
34871 21.1265 -16.2666 -52.3196 
36185 23.2231 -16.3555 -53.5554 
36191 25.5033 -16.1636 -52.2673 
37296 27.548 -16.2374 -53.5276 
22184 -31.6254 -13.3664 -53.4526 
21024 -28.1368 -13.2919 -53.4875 
21027 -29.8658 -12.2133 -52.21 
19671 -24.6156 -13.2178 -53.5821 
19673 -26.2364 -14.6771 -52.2393 
19674 -26.3222 -12.1156 -52.2671 
18496 -22.7013 -14.5926 -52.3127 
18497 -22.7855 -12.0266 -52.3374 
18494 -21.0632 -13.1584 -53.6324 
17495 -19.1493 -14.5146 -52.3629 
18495 -20.8726 -13.3845 -51.0717 
17496 -19.2306 -11.9493 -52.3855 
17493 -17.5105 -13.1048 -53.6778 
17494 -17.3194 -13.2861 -51.1166 
16668 -15.6724 -11.8717 -52.4276 
25150 -15.0631 -13.8833 -53.6985 
25191 -14.8715 -14.039 -51.1391 
24299 -13.2269 -12.6393 -52.4471 
25153 -12.6152 -14.6616 -53.7188 
24267 -9.11482 -12.0337 -53.7742 
24298 -10.7753 -13.403 -52.4644 
24300 -8.95461 -12.1227 -51.2129 
24270 -6.66149 -12.8053 -53.784 
24271 -6.49718 -12.8635 -51.2228 
24273 -8.32183 -14.1611 -52.4767 
24241 -4.20552 -13.5703 -53.7872 
24274 -4.03738 -13.5977 -51.2262 
23582 -2.3759 -12.2532 -52.5237 
24244 -1.74691 -14.3283 -53.784 
24245 -1.57508 -14.3249 -51.2227 
23581 0.0854056 -12.9929 -52.5162 
23564 2.54903 -13.7245 -52.5021 
23561 4.22552 -12.4267 -53.7925 
23562 4.36136 -12.3425 -51.2316 
23563 5.01021 -14.4457 -52.4846 
31142 6.49425 -12.3565 -52.5021 
31791 8.62806 -12.3873 -53.7742 
31820 7.13396 -14.4783 -53.7564 
31821 7.29296 -14.3659 -51.197 
31824 8.76224 -12.2624 -51.2129 
31797 10.8965 -12.2906 -52.4766 
31822 9.4172 -14.3897 -52.4644 
32640 11.5418 -14.4383 -53.7321 
32681 11.6975 -14.2779 -51.1717 
32643 13.0332 -12.3439 -53.7402 
32644 13.1611 -12.1699 -51.1802 
32646 13.8216 -14.3243 -52.4316 
32645 15.2963 -12.2205 -52.4368 
33623 17.4328 -12.2946 -53.6952 
33668 15.947 -14.3947 -53.6927 
33669 16.0979 -14.1856 -51.1328 
33672 17.5562 -12.0717 -51.1353 
33670 18.2205 -14.2519 -52.3878 
33629 19.6898 -12.1414 -52.3878 
34816 20.3433 -14.3402 -53.6457 
34873 20.4849 -14.0771 -51.0762 
34819 21.8241 -12.2333 -53.643 
34820 21.9381 -11.9559 -51.0736 
34821 24.0619 -12.0357 -52.3143 
34822 22.5969 -14.153 -52.3195 
36127 26.183 -12.1324 -53.5447 
36188 24.7056 -14.2454 -53.5527 
36190 26.9714 -14.0432 -52.2617 
36133 28.4343 -11.9208 -52.2505 
37263 29.0297 -14.1221 -53.5185 
37264 30.5067 -12.0058 -53.5034 
22183 -31.6837 -10.7951 -53.4818 
21021 -28.202 -10.7235 -53.5125 
21084 -29.9411 -9.64333 -52.2334 
19668 -24.6828 -10.6491 -53.6048 
19723 -26.402 -9.54909 -52.2882 
18538 -22.8653 -9.46021 -52.3576 
18491 -21.1259 -10.5882 -53.656 
18540 -20.9709 -10.8197 -51.0944 
17529 -19.3085 -9.38067 -52.4055 
16696 -15.7508 -9.30674 -52.4471 
17490 -17.5695 -10.5337 -53.6984 
17531 -17.4148 -10.723 -51.139 
16039 -12.1905 -9.22896 -52.4846 
16665 -14.013 -10.481 -53.7378 
16698 -13.8574 -10.624 -51.1772 
23618 -9.74494 -9.99478 -52.5021 