LAMMPS (15 May 2015)
Processor partition = 2
#log         log.neb.lammps
#--------------------------------------------------------------------------------------------------------------------------
# create FCC structure   - copper
# box axis ox: [ 0 -1  1]
# box axis oy: [ 1  1  1]
# box axis oz: [-2  1  1]
#       |y1 [-1 -1  1]
#       |
#       |
#       |____________ x1 [ 1  1  2]
#      /o
#     /
#    /
#   /z1 [ 1 -1 0]

variable    lattice_type index fcc
variable    lattice_atom equal 4
#variable    lattice_cons equal 3.615
if   "${metal} == Al99" then "variable  lattice_cons equal 4.05 " elif "${metal} == Al03"      "variable  lattice_cons equal 4.05 " elif "${metal} == Ni"        "variable  lattice_cons equal 3.52 " elif "${metal} == Cu"        "variable  lattice_cons equal 3.615" elif "${metal} == Ag"        "variable  lattice_cons equal 4.09 " elif "${metal} == Au"        "variable  lattice_cons equal 4.08 " else "print '------- This is nothing ----'"   "quit"
variable  lattice_cons equal 3.615
print '------- This is ${metal} ---------'
------- This is Cu ---------

variable    cell_volume  equal ${lattice_cons}^3
variable    cell_volume  equal 3.615^3
variable    atom_volume  equal ${cell_volume}/${lattice_atom}*10000 # 10000 是为了使得最终的应力结果以GPa为单位而引入的参数
variable    atom_volume  equal 47.241633375/${lattice_atom}*10000 
variable    atom_volume  equal 47.241633375/4*10000 
                                                                    # metal units 中, 应力单位为bar

variable        timestep    equal 0.002
variable        u  uloop 480

atom_modify     map array sort 0 0.0    # build mapping and turn off sorting

variable        nStep   index 5064
read_restart    ./res/neb.${nStep}.$u.restart
read_restart    ./res/neb.213.$u.restart
read_restart    ./res/neb.213.3.restart
  orthogonal box = (-100 -100 -156.15) to (100 100 156.15)
  1 by 1 by 1 MPI processor grid
  37664 atoms
reset_timestep  0
# -------- potentials & neighbor -------
pair_style      eam/alloy
#pair_coeff      * * Cu_mishin1.eam.alloy Cu
if   "${metal} == Al99" then "pair_coeff  * * ../potentials/Al99.eam.alloy Al" elif "${metal} == Al03"      "pair_coeff  * * ../potentials/Al03.eam.alloy Al" elif "${metal} == Ni"        "pair_coeff  * * ../potentials/Ni99.eam.alloy Ni" elif "${metal} == Cu"        "pair_coeff  * * ../potentials/Cu_mishin1.eam.alloy Cu" elif "${metal} == Ag"        "pair_coeff  * * ../potentials/Ag.eam.alloy Ag" elif "${metal} == Au"        "pair_coeff  * * ../potentials/Au-Grochola-JCP05.eam.alloy Au" else "quit"
pair_coeff  * * ../potentials/Cu_mishin1.eam.alloy Cu

neighbor        1.0 bin
neigh_modify    every 1 delay 5 check yes
# --------------------------------------

# ----------------------- 定义统计量 ---------------------------------
compute         atomStress all stress/atom NULL
compute         atomPE all pe/atom
#---------- 每个原子的应力 -------------
variable        peratom_sxx atom c_atomStress[1]/${atom_volume}
variable        peratom_sxx atom c_atomStress[1]/118104.0834375
variable        peratom_syy atom c_atomStress[2]/${atom_volume}
variable        peratom_syy atom c_atomStress[2]/118104.0834375
variable        peratom_szz atom c_atomStress[3]/${atom_volume}
variable        peratom_szz atom c_atomStress[3]/118104.0834375
variable        peratom_sxy atom c_atomStress[4]/${atom_volume}
variable        peratom_sxy atom c_atomStress[4]/118104.0834375
variable        peratom_sxz atom c_atomStress[5]/${atom_volume}
variable        peratom_sxz atom c_atomStress[5]/118104.0834375
variable        peratom_syz atom c_atomStress[6]/${atom_volume}
variable        peratom_syz atom c_atomStress[6]/118104.0834375
#----------- all的体积 --------------
variable        p_natom equal count(all)
variable        entityVol equal ${atom_volume}*${p_natom}
variable        entityVol equal 118104.0834375*${p_natom}
variable        entityVol equal 118104.0834375*37664
#----------- all的应力 --------------
compute         sxx0 all  reduce sum c_atomStress[1]
compute         syy0 all  reduce sum c_atomStress[2]
compute         szz0 all  reduce sum c_atomStress[3]
compute         sxy0 all  reduce sum c_atomStress[4]
compute         sxz0 all  reduce sum c_atomStress[5]
compute         syz0 all  reduce sum c_atomStress[6]
variable        sxx equal c_sxx0/${entityVol}
variable        sxx equal c_sxx0/4448272198.59
variable        syy equal c_syy0/${entityVol}
variable        syy equal c_syy0/4448272198.59
variable        szz equal c_szz0/${entityVol}
variable        szz equal c_szz0/4448272198.59
variable        sxy equal c_sxy0/${entityVol}
variable        sxy equal c_sxy0/4448272198.59
variable        sxz equal c_sxz0/${entityVol}
variable        sxz equal c_sxz0/4448272198.59
variable        syz equal c_syz0/${entityVol}
variable        syz equal c_syz0/4448272198.59
# --------------------------------------------------------------------

thermo          100
thermo_style    custom step etotal pe ke temp press v_sxx v_syy v_szz v_sxy v_sxz v_syz
thermo_modify   format float %25.18g

reset_timestep  0
timestep        ${timestep}
timestep        0.002

dump            1 all custom 5000 neb.*.$u.lammpstrj id x y z v_peratom_sxx v_peratom_syy v_peratom_szz v_peratom_sxy v_peratom_sxz v_peratom_syz c_atomPE
dump            1 all custom 5000 neb.*.3.lammpstrj id x y z v_peratom_sxx v_peratom_syy v_peratom_szz v_peratom_sxy v_peratom_sxz v_peratom_syz c_atomPE
dump_modify     1 sort id
restart         5000 neb.*.$u.restart
restart         5000 neb.*.3.restart

fix             1 boundary setforce 0 0 0
variable        kspring     index 1.0
fix             2 mobile neb ${kspring}
fix             2 mobile neb 1.0

min_style       quickmin
variable        etol    index 0.0
variable        ftol    index 0.01
variable        nudgeStep index 400000
variable        climbStep index 400000
neb             ${etol} ${ftol} ${nudgeStep} ${climbStep} 100 none
neb             0.0 ${ftol} ${nudgeStep} ${climbStep} 100 none
neb             0.0 0.010 ${nudgeStep} ${climbStep} 100 none
neb             0.0 0.010 400000 ${climbStep} 100 none
neb             0.0 0.010 400000 0 100 none
WARNING: Resetting reneighboring criteria during minimization (../min.cpp:168)
Neighbor list info ...
  1 neighbor list requests
  update every 1 steps, delay 0 steps, check yes
  master list distance cutoff = 6.50679
Memory usage per processor = 25.009 Mbytes
Step TotEng PotEng KinEng Temp Press sxx syy szz sxy sxz syz 
       0      -129886.997344026706      -129886.997344026706                         0                         0      -107.581700040564215    -0.0893032044498201089    -0.0937292103325487042       1.08939183332043044    0.00379799179422001193   -0.00211357900913560545   -0.00175416825595950399 
     100      -129886.997676964849      -129887.000797337241     0.0031203723974703914   0.000640954024083345347      -107.620701847386329    -0.0892305753055322726    -0.0935444378304175483       1.08946301594941142    0.00359885530332131184   -0.00187704463258727599   -0.00167578130642944073 
     200      -129887.004197719332      -129887.005270229769    0.00107251043840162321   0.000220303795124644628      -107.702920538500678    -0.0891346445683686706    -0.0931429227914166158       1.08965825010898243    0.00295988225378370634   -0.00152134260094694365   -0.00145020255057393892 
     300      -129887.004103940053      -129887.007523373322    0.00341943327591391188   0.000702383959061512824      -107.752605050900897    -0.0891522934737707523    -0.0928208164356582738       1.08977237709959707     0.0024810827997466295   -0.00131661672266882067   -0.00123026229762562725 
     400      -129887.007111239465       -129887.00875016136    0.00163892188790063214   0.000336650067812347179       -107.77851675620569    -0.0892233432040526325    -0.0925875540190080337       1.08982846657933519    0.00215587945179289116   -0.00118481165979929899   -0.00104222257477923266 
     409      -129887.007106429257      -129887.008876331442    0.00176990218686051671   0.000363554660918617343      -107.780964235845971    -0.0892349484488911826    -0.0925603642494177287       1.08983350169734394    0.00211912514343597482   -0.00116975313497804604   -0.00101860302423451249 
Loop time of 41.4996 on 1 procs for 409 steps with 37664 atoms

Minimization stats:
  Stopping criterion = force tolerance
  Energy initial, next-to-last, final = 
        -129886.997344     -129887.008862     -129887.008876
  Force two-norm initial, final = 0.0632325 0.00996886
  Force max component initial, final = 0.0105969 0.000213251
  Final line search alpha, max atom move = 0 0
  Iterations, force evaluations = 409 409

Pair  time (%) = 38.8231 (93.5504)
Neigh time (%) = 0.0720661 (0.173655)
Comm  time (%) = 0.00166583 (0.00401409)
Outpt time (%) = 0.014544 (0.0350461)
Other time (%) = 2.58828 (6.23688)

Nlocal:    37664 ave 37664 max 37664 min
Histogram: 1 0 0 0 0 0 0 0 0 0
Nghost:    0 ave 0 max 0 min
Histogram: 1 0 0 0 0 0 0 0 0 0
Neighs:    1.523e+06 ave 1.523e+06 max 1.523e+06 min
Histogram: 1 0 0 0 0 0 0 0 0 0

Total # of neighbors = 1522997
Ave neighs/atom = 40.4364
Neighbor list builds = 1
Dangerous builds = 0
WARNING: Resetting reneighboring criteria during minimization (../min.cpp:168)
Memory usage per processor = 25.009 Mbytes
Step TotEng PotEng KinEng Temp Press sxx syy szz sxy sxz syz 
     409      -129887.008876331442      -129887.008876331442                         0                         0      -107.781115569742695     -0.089234669979962683    -0.0925599025629605526       1.08983403650696831    0.00211916406854771155   -0.00116991704027567659   -0.00101844214312698969 
Loop time of 6.19888e-06 on 1 procs for 0 steps with 37664 atoms

Minimization stats:
  Stopping criterion = force tolerance
  Energy initial, next-to-last, final = 
        -129887.008876     -129887.008862     -129887.008876
  Force two-norm initial, final = 0.00996886 0.00996886
  Force max component initial, final = 0.000213251 0.000213251
  Final line search alpha, max atom move = 0 0
  Iterations, force evaluations = 0 0

Pair  time (%) = 0 (0)
Neigh time (%) = 0 (0)
Comm  time (%) = 0 (0)
Outpt time (%) = 0 (0)
Other time (%) = 6.19888e-06 (100)

Nlocal:    37664 ave 37664 max 37664 min
Histogram: 1 0 0 0 0 0 0 0 0 0
Nghost:    0 ave 0 max 0 min
Histogram: 1 0 0 0 0 0 0 0 0 0
Neighs:    1.523e+06 ave 1.523e+06 max 1.523e+06 min
Histogram: 1 0 0 0 0 0 0 0 0 0

Total # of neighbors = 1522997
Ave neighs/atom = 40.4364
Neighbor list builds = 0
Dangerous builds = 0

