LAMMPS (15 May 2015)
Running on 9 partitions of processors
Step MaxReplicaForce MaxAtomForce GradV0 GradV1 GradVc EBF EBR RDT RD1 PE1 RD2 PE2 ... RDN PEN
0  6.3232511914931e-02  1.0596873317771e-02  1.5574357078383e-01  6.4783709458230e-02  4.4273927876909e-02  8.0603734939359e-02  1.7811667537899e-02  1.6876533918026e+00  0.0000000000000e+00 -1.2988704937964e+05  1.2463310746653e-01 -1.2988701999168e+05  2.4926621493306e-01 -1.2988699734403e+05  3.7389932239959e-01 -1.2988698195224e+05  4.9853242986611e-01 -1.2988697315259e+05  6.2389932239958e-01 -1.2988696877591e+05  7.4926621493306e-01 -1.2988696981694e+05  8.7463310746653e-01 -1.2988697603749e+05  1.0000000000000e+00 -1.2988698658758e+05 
100  2.6181603844764e-02  1.3569458518629e-03  1.5251491922886e-01  6.1384832719909e-02  2.6290151318309e-02  8.0106141773285e-02  1.7332152012386e-02  1.7072930454710e+00  0.0000000000000e+00 -1.2988705199698e+05  1.2475076381936e-01 -1.2988702311351e+05  2.4968301993178e-01 -1.2988700079734e+05  3.7485481547040e-01 -1.2988698511116e+05  5.0015980414835e-01 -1.2988697568435e+05  6.2524184196738e-01 -1.2988697189083e+05  7.5013092155642e-01 -1.2988697324707e+05  8.7506199046066e-01 -1.2988697920174e+05  1.0000000000000e+00 -1.2988698922299e+05 
200  1.6783510586351e-02  5.4758754172969e-04  1.4939773497189e-01  5.6734611417854e-02  1.7355680348647e-02  7.9941994772526e-02  1.7313872245722e-02  1.7372692996117e+00  0.0000000000000e+00 -1.2988705661577e+05  1.2487886644858e-01 -1.2988702759802e+05  2.4978662483300e-01 -1.2988700527023e+05  3.7473775532214e-01 -1.2988698963685e+05  4.9973199891413e-01 -1.2988698029810e+05  6.2475495415596e-01 -1.2988697667377e+05  7.4978196154033e-01 -1.2988697811765e+05  8.7487438412371e-01 -1.2988698406474e+05  1.0000000000000e+00 -1.2988699398765e+05 
300  1.2627975948234e-02  3.2857486424925e-04  1.4841584480822e-01  5.5095348525899e-02  1.3316339788647e-02  7.9902713710908e-02  1.7323523439700e-02  1.7487336088466e+00  0.0000000000000e+00 -1.2988705892576e+05  1.2489122608100e-01 -1.2988702985273e+05  2.4980398752850e-01 -1.2988700752337e+05  3.7475146251308e-01 -1.2988699191860e+05  4.9973845222365e-01 -1.2988698261704e+05  6.2476176246078e-01 -1.2988697902305e+05  7.4980557993592e-01 -1.2988698049089e+05  8.7489172266317e-01 -1.2988698644244e+05  1.0000000000000e+00 -1.2988699634657e+05 
400  1.0222040517213e-02  2.2180532929940e-04  1.4797361014915e-01  5.4363947630189e-02  1.1103449792860e-02  7.9901721590431e-02  1.7324671061942e-02  1.7539781428566e+00  0.0000000000000e+00 -1.2988706019450e+05  1.2492855217794e-01 -1.2988703108617e+05  2.4987070192138e-01 -1.2988700875016e+05  3.7483520486952e-01 -1.2988699315627e+05  4.9982585988956e-01 -1.2988698387196e+05  6.2484149598440e-01 -1.2988698029278e+05  7.4987194903301e-01 -1.2988698177215e+05  8.7492895111625e-01 -1.2988698772475e+05  1.0000000000000e+00 -1.2988699761745e+05 
409  9.9729258951678e-03  2.1433524958443e-04  1.4793245904791e-01  5.4294174310093e-02  1.0871125298782e-02  7.9901617704309e-02  1.7324708809610e-02  1.7544802663001e+00  0.0000000000000e+00 -1.2988706032477e+05  1.2493228669729e-01 -1.2988703121301e+05  2.4987742417063e-01 -1.2988700887633e+05  3.7484371930429e-01 -1.2988699328349e+05  4.9983481700344e-01 -1.2988698400086e+05  6.2484967030634e-01 -1.2988698042315e+05  7.4987863682921e-01 -1.2988698190365e+05  8.7493267802940e-01 -1.2988698785632e+05  1.0000000000000e+00 -1.2988699774786e+05 
Climbing replica = 6
Step MaxReplicaForce MaxAtomForce GradV0 GradV1 GradVc EBF EBR RDT RD1 PE1 RD2 PE2 ... RDN PEN
409  1.0871125298782e-02  5.7683212008981e-04  1.4793245904791e-01  5.4294174310093e-02  1.0871125298782e-02  7.9901617704309e-02  1.7324708809610e-02  1.7544802663001e+00  0.0000000000000e+00 -1.2988706032477e+05  1.2493228669729e-01 -1.2988703121301e+05  2.4987742417063e-01 -1.2988700887633e+05  3.7484371930429e-01 -1.2988699328349e+05  4.9983481700344e-01 -1.2988698400086e+05  6.2484967030634e-01 -1.2988698042315e+05  7.4987863682921e-01 -1.2988698190365e+05  8.7493267802940e-01 -1.2988698785632e+05  1.0000000000000e+00 -1.2988699774786e+05 
