LAMMPS (15 May 2015)
Processor partition = 8
#log         log.neb.lammps
#--------------------------------------------------------------------------------------------------------------------------
# create FCC structure   - copper
# box axis ox: [ 0 -1  1]
# box axis oy: [ 1  1  1]
# box axis oz: [-2  1  1]
#       |y1 [-1 -1  1]
#       |
#       |
#       |____________ x1 [ 1  1  2]
#      /o
#     /
#    /
#   /z1 [ 1 -1 0]

variable    lattice_type index fcc
variable    lattice_atom equal 4
#variable    lattice_cons equal 3.615
if   "${metal} == Al99" then "variable  lattice_cons equal 4.05 " elif "${metal} == Al03"      "variable  lattice_cons equal 4.05 " elif "${metal} == Ni"        "variable  lattice_cons equal 3.52 " elif "${metal} == Cu"        "variable  lattice_cons equal 3.615" elif "${metal} == Ag"        "variable  lattice_cons equal 4.09 " elif "${metal} == Au"        "variable  lattice_cons equal 4.08 " else "print '------- This is nothing ----'"   "quit"
variable  lattice_cons equal 3.615
print '------- This is ${metal} ---------'
------- This is Cu ---------

variable    cell_volume  equal ${lattice_cons}^3
variable    cell_volume  equal 3.615^3
variable    atom_volume  equal ${cell_volume}/${lattice_atom}*10000 # 10000 是为了使得最终的应力结果以GPa为单位而引入的参数
variable    atom_volume  equal 47.241633375/${lattice_atom}*10000 
variable    atom_volume  equal 47.241633375/4*10000 
                                                                    # metal units 中, 应力单位为bar

variable        timestep    equal 0.002
variable        u  uloop 480

atom_modify     map array sort 0 0.0    # build mapping and turn off sorting

variable        nStep   index 5064
read_restart    ./res/neb.${nStep}.$u.restart
read_restart    ./res/neb.213.$u.restart
read_restart    ./res/neb.213.9.restart
  orthogonal box = (-100 -100 -156.15) to (100 100 156.15)
  1 by 1 by 1 MPI processor grid
  37664 atoms
reset_timestep  0
# -------- potentials & neighbor -------
pair_style      eam/alloy
#pair_coeff      * * Cu_mishin1.eam.alloy Cu
if   "${metal} == Al99" then "pair_coeff  * * ../potentials/Al99.eam.alloy Al" elif "${metal} == Al03"      "pair_coeff  * * ../potentials/Al03.eam.alloy Al" elif "${metal} == Ni"        "pair_coeff  * * ../potentials/Ni99.eam.alloy Ni" elif "${metal} == Cu"        "pair_coeff  * * ../potentials/Cu_mishin1.eam.alloy Cu" elif "${metal} == Ag"        "pair_coeff  * * ../potentials/Ag.eam.alloy Ag" elif "${metal} == Au"        "pair_coeff  * * ../potentials/Au-Grochola-JCP05.eam.alloy Au" else "quit"
pair_coeff  * * ../potentials/Cu_mishin1.eam.alloy Cu

neighbor        1.0 bin
neigh_modify    every 1 delay 5 check yes
# --------------------------------------

# ----------------------- 定义统计量 ---------------------------------
compute         atomStress all stress/atom NULL
compute         atomPE all pe/atom
#---------- 每个原子的应力 -------------
variable        peratom_sxx atom c_atomStress[1]/${atom_volume}
variable        peratom_sxx atom c_atomStress[1]/118104.0834375
variable        peratom_syy atom c_atomStress[2]/${atom_volume}
variable        peratom_syy atom c_atomStress[2]/118104.0834375
variable        peratom_szz atom c_atomStress[3]/${atom_volume}
variable        peratom_szz atom c_atomStress[3]/118104.0834375
variable        peratom_sxy atom c_atomStress[4]/${atom_volume}
variable        peratom_sxy atom c_atomStress[4]/118104.0834375
variable        peratom_sxz atom c_atomStress[5]/${atom_volume}
variable        peratom_sxz atom c_atomStress[5]/118104.0834375
variable        peratom_syz atom c_atomStress[6]/${atom_volume}
variable        peratom_syz atom c_atomStress[6]/118104.0834375
#----------- all的体积 --------------
variable        p_natom equal count(all)
variable        entityVol equal ${atom_volume}*${p_natom}
variable        entityVol equal 118104.0834375*${p_natom}
variable        entityVol equal 118104.0834375*37664
#----------- all的应力 --------------
compute         sxx0 all  reduce sum c_atomStress[1]
compute         syy0 all  reduce sum c_atomStress[2]
compute         szz0 all  reduce sum c_atomStress[3]
compute         sxy0 all  reduce sum c_atomStress[4]
compute         sxz0 all  reduce sum c_atomStress[5]
compute         syz0 all  reduce sum c_atomStress[6]
variable        sxx equal c_sxx0/${entityVol}
variable        sxx equal c_sxx0/4448272198.59
variable        syy equal c_syy0/${entityVol}
variable        syy equal c_syy0/4448272198.59
variable        szz equal c_szz0/${entityVol}
variable        szz equal c_szz0/4448272198.59
variable        sxy equal c_sxy0/${entityVol}
variable        sxy equal c_sxy0/4448272198.59
variable        sxz equal c_sxz0/${entityVol}
variable        sxz equal c_sxz0/4448272198.59
variable        syz equal c_syz0/${entityVol}
variable        syz equal c_syz0/4448272198.59
# --------------------------------------------------------------------

thermo          100
thermo_style    custom step etotal pe ke temp press v_sxx v_syy v_szz v_sxy v_sxz v_syz
thermo_modify   format float %25.18g

reset_timestep  0
timestep        ${timestep}
timestep        0.002

dump            1 all custom 5000 neb.*.$u.lammpstrj id x y z v_peratom_sxx v_peratom_syy v_peratom_szz v_peratom_sxy v_peratom_sxz v_peratom_syz c_atomPE
dump            1 all custom 5000 neb.*.9.lammpstrj id x y z v_peratom_sxx v_peratom_syy v_peratom_szz v_peratom_sxy v_peratom_sxz v_peratom_syz c_atomPE
dump_modify     1 sort id
restart         5000 neb.*.$u.restart
restart         5000 neb.*.9.restart

fix             1 boundary setforce 0 0 0
variable        kspring     index 1.0
fix             2 mobile neb ${kspring}
fix             2 mobile neb 1.0

min_style       quickmin
variable        etol    index 0.0
variable        ftol    index 0.01
variable        nudgeStep index 400000
variable        climbStep index 400000
neb             ${etol} ${ftol} ${nudgeStep} ${climbStep} 100 none
neb             0.0 ${ftol} ${nudgeStep} ${climbStep} 100 none
neb             0.0 0.010 ${nudgeStep} ${climbStep} 100 none
neb             0.0 0.010 400000 ${climbStep} 100 none
neb             0.0 0.010 400000 0 100 none
WARNING: Resetting reneighboring criteria during minimization (../min.cpp:168)
Neighbor list info ...
  1 neighbor list requests
  update every 1 steps, delay 0 steps, check yes
  master list distance cutoff = 6.50679
Memory usage per processor = 25.009 Mbytes
Step TotEng PotEng KinEng Temp Press sxx syy szz sxy sxz syz 
       0      -129886.986587577485      -129886.986587577485                         0                         0      -107.639676948718602    -0.0892899045240109351    -0.0925679680109773861       1.08870573768380696    0.00256584220191478137  -0.000603468271630325237    0.00140955779988278336 
     100         -129886.986194546      -129886.989222986551    0.00302844055227168745   0.000622070352964704297      -107.668531204761223    -0.0892275678020615359    -0.0924337413031963429       1.08875226696146443    0.00233123097961168528  -0.000443668502687921381    0.00147294538387531936 
     200      -129886.992884202904      -129886.993987646507    0.00110344360785044593    0.00022665776090512261      -107.740908251356345    -0.0891337511469923044    -0.0920531858557153415       1.08888766044028285    0.00170158693470823285  -0.000118117932517472767    0.00169268047218009993 
     300       -129886.99290961276      -129886.996346569591      0.003436956829185205   0.000705983462760039144      -107.786909545095952    -0.0891531513340416137    -0.0917391824052035398       1.08898061106216737    0.00122590798999521779   7.70595094313250817e-05    0.00191288291985380605 
     400      -129886.995978108185      -129886.997617446163    0.00163933797286211643   0.000336735535601589292       -107.81128344789326    -0.0892251833222900276     -0.091509488929466129       1.08902829598913953   0.000902115888052098321   0.000205092172759978802    0.00210180571192599601 
     409      -129886.995977942512      -129886.997747856891    0.00176991437186838269   0.000363557163834561453      -107.813591446558505    -0.0892368784528502212    -0.0914826350475369393       1.08903258177462892   0.000865480388731942538   0.000219839186272946063     0.0021255562992774763 
Loop time of 41.4996 on 1 procs for 409 steps with 37664 atoms

Minimization stats:
  Stopping criterion = force tolerance
  Energy initial, next-to-last, final = 
        -129886.986588     -129886.997733     -129886.997748
  Force two-norm initial, final = 0.0287152 0.00996876
  Force max component initial, final = 0.00147147 0.000214335
  Final line search alpha, max atom move = 0 0
  Iterations, force evaluations = 409 409

Pair  time (%) = 39.0937 (94.2025)
Neigh time (%) = 0.0725901 (0.174918)
Comm  time (%) = 0.00173593 (0.004183)
Outpt time (%) = 0.0145564 (0.035076)
Other time (%) = 2.31704 (5.58328)

Nlocal:    37664 ave 37664 max 37664 min
Histogram: 1 0 0 0 0 0 0 0 0 0
Nghost:    0 ave 0 max 0 min
Histogram: 1 0 0 0 0 0 0 0 0 0
Neighs:    1.52296e+06 ave 1.52296e+06 max 1.52296e+06 min
Histogram: 1 0 0 0 0 0 0 0 0 0

Total # of neighbors = 1522962
Ave neighs/atom = 40.4355
Neighbor list builds = 1
Dangerous builds = 0
WARNING: Resetting reneighboring criteria during minimization (../min.cpp:168)
Memory usage per processor = 25.009 Mbytes
Step TotEng PotEng KinEng Temp Press sxx syy szz sxy sxz syz 
     409      -129886.997747856891      -129886.997747856891                         0                         0      -107.813742781497098    -0.0892365982902591365    -0.0914821625851955783       1.08903310412347798    0.00086552252773888479   0.000219679589270133335    0.00212571578214349561 
Loop time of 5.96046e-06 on 1 procs for 0 steps with 37664 atoms

Minimization stats:
  Stopping criterion = force tolerance
  Energy initial, next-to-last, final = 
        -129886.997748     -129886.997733     -129886.997748
  Force two-norm initial, final = 0.00996876 0.00996876
  Force max component initial, final = 0.000214335 0.000214335
  Final line search alpha, max atom move = 0 0
  Iterations, force evaluations = 0 0

Pair  time (%) = 0 (0)
Neigh time (%) = 0 (0)
Comm  time (%) = 0 (0)
Outpt time (%) = 0 (0)
Other time (%) = 5.96046e-06 (100)

Nlocal:    37664 ave 37664 max 37664 min
Histogram: 1 0 0 0 0 0 0 0 0 0
Nghost:    0 ave 0 max 0 min
Histogram: 1 0 0 0 0 0 0 0 0 0
Neighs:    1.52296e+06 ave 1.52296e+06 max 1.52296e+06 min
Histogram: 1 0 0 0 0 0 0 0 0 0

Total # of neighbors = 1522962
Ave neighs/atom = 40.4355
Neighbor list builds = 0
Dangerous builds = 0

