ITEM: TIMESTEP
0
ITEM: NUMBER OF ATOMS
37664
ITEM: BOX BOUNDS ff ff ff
-100 100
-100 100
-156.15 156.15
ITEM: ATOMS id x y z v_peratom_sxx v_peratom_syy v_peratom_szz v_peratom_sxy v_peratom_sxz v_peratom_syz c_atomPE 
1 -0.00340328 -0.00162308 -0.000369277 -5.18111 -5.16891 -9.54287 0.000249497 -0.00830811 -0.0469937 -3.51524 
2 -0.00362369 -0.00136637 2.55279 -5.17891 -5.16752 -9.53894 -0.000799516 -0.00672912 -0.0462832 -3.51526 
3 -0.00382383 -0.00109386 5.10608 -5.17239 -5.16212 -9.52492 -0.00191582 -0.0045752 -0.0453041 -3.51532 
4 -0.00400116 -0.000807832 7.65962 -5.16103 -5.15227 -9.49983 -0.00308541 -0.0017451 -0.0440563 -3.51544 
5 -0.00415025 -0.000512607 10.2136 -5.14405 -5.1372 -9.46204 -0.00426326 0.00174326 -0.0425015 -3.51561 
6 -0.00426341 -0.00021377 12.7681 -5.12036 -5.11577 -9.40923 -0.00538071 0.00572682 -0.0405837 -3.51586 
7 -0.00433241 8.28057e-05 15.3235 -5.08847 -5.08635 -9.33831 -0.00636385 0.00992692 -0.0382659 -3.51619 
8 -0.00435034 0.000371554 17.88 -5.04623 -5.04665 -9.2453 -0.00715266 0.0140202 -0.035565 -3.51661 
9 -0.00431296 0.000647184 20.4379 -4.99067 -4.99354 -9.12528 -0.00771234 0.0177158 -0.0325681 -3.51716 
10 -0.00421907 0.000904165 22.9976 -4.91769 -4.92277 -8.97248 -0.00803539 0.0208112 -0.0294296 -3.51785 
11 -0.00406999 0.00113608 25.5594 -4.82192 -4.82889 -8.78103 -0.00813766 0.0232153 -0.0263517 -3.5187 
12 -0.00386856 0.00133519 28.1239 -4.69701 -4.70549 -8.54662 -0.00805194 0.0249442 -0.0235546 -3.51973 
13 -0.00361798 0.00149242 30.6913 -4.53713 -4.54672 -8.2696 -0.00782025 0.0260948 -0.0212401 -3.52092 
14 -0.00332095 0.00159766 33.262 -4.34069 -4.351 -7.95868 -0.00748445 0.0268075 -0.0195561 -3.52221 
15 -0.00297897 0.00164018 35.8359 -4.11558 -4.12624 -7.63134 -0.00707715 0.0272317 -0.0185807 -3.52348 
16 -0.00259189 0.00160858 38.4127 -3.87784 -3.88851 -7.30593 -0.00661546 0.0274973 -0.0183289 -3.52458 
17 -0.00215736 0.00148999 40.9918 -3.63907 -3.64942 -6.98889 -0.00609617 0.027701 -0.0187863 -3.52547 
18 -0.00166784 0.00126731 43.5732 -3.40025 -3.40992 -6.66742 -0.0054803 0.0279781 -0.0199805 -3.52619 
19 -0.00110584 0.00091443 46.157 -3.13628 -3.14463 -6.30467 -0.00462948 0.028499 -0.0219899 -3.52694 
20 -0.000452039 0.000391462 48.7436 -2.75376 -2.75844 -5.86505 -0.00261548 0.0285544 -0.0247299 -3.52781 
21 5.95933e-07 -4.11185e-08 51.3317 -1.92326 -1.9229 -4.9209 0.000198925 -0.00147418 0.00131128 -3.53204 
22 4.01304e-07 -1.42881e-06 53.9138 -0.851884 -0.851897 -8.9178 -1.03371e-06 -2.51218e-05 -7.2798e-05 -3.48169 
23 8.71386e-07 -1.98378e-06 56.3885 1.6856 1.68561 1.87691 -1.43478e-05 2.28244e-05 -7.02247e-07 -2.55581 
24 -1.23087e-07 -1.12453e-06 -53.8876 -2.60701 -2.60703 -6.54965 -1.41795e-05 7.6963e-06 -3.35255e-05 -3.40183 
25 1.02659e-07 -1.55837e-06 -51.3239 -2.07924 -2.07932 -5.58083 -0.000521041 0.000569544 0.00243955 -3.52873 
26 -0.000128385 -0.000689356 -48.7463 -2.69742 -2.69558 -6.15289 0.00688581 -0.00825734 -0.0430971 -3.52637 
27 -0.000267529 -0.00163617 -46.1647 -3.02486 -3.02143 -6.35429 0.0122656 -0.00601259 -0.0395701 -3.52675 
28 -0.00034378 -0.00233256 -43.5824 -3.3063 -3.3012 -6.6149 0.0138042 -0.00261121 -0.036479 -3.52632 
29 -0.00036354 -0.00283835 -41.001 -3.56169 -3.55464 -6.90281 0.0142669 0.00037744 -0.0341481 -3.52572 
30 -0.000351784 -0.00319279 -38.4213 -3.8118 -3.80271 -7.21074 0.0141055 0.0026337 -0.0324684 -3.52489 
31 -0.000333146 -0.00342177 -35.8438 -4.05796 -4.04693 -7.53483 0.0135104 0.00390979 -0.0314042 -3.52383 
32 -0.000330917 -0.00354593 -33.269 -4.29092 -4.27818 -7.86419 0.0126196 0.00402141 -0.0310119 -3.5226 
33 -0.000365674 -0.00358443 -30.6973 -4.49773 -4.48363 -8.1814 0.0115645 0.00293834 -0.0313541 -3.52131 
34 -0.000452821 -0.0035557 -28.1288 -4.66993 -4.65488 -8.46946 0.0104625 0.000839287 -0.0324365 -3.52009 
35 -0.000600237 -0.00347654 -25.5634 -4.80649 -4.7909 -8.7179 0.00939895 -0.00190512 -0.0341689 -3.51901 
36 -0.000807225 -0.00336107 -23.0007 -4.91137 -4.89559 -8.92371 0.00841467 -0.00482015 -0.0363615 -3.5181 
37 -0.00106528 -0.00321995 -20.4404 -4.99033 -4.97462 -9.08925 0.0075076 -0.00745453 -0.0387653 -3.51735 
38 -0.00136058 -0.00306043 -17.882 -5.04906 -5.03359 -9.21947 0.00664768 -0.00948737 -0.0411293 -3.51676 
39 -0.00167718 -0.00288707 -15.3251 -5.09237 -5.07725 -9.32008 0.00579814 -0.0107794 -0.0432488 -3.51629 
40 -0.00199997 -0.00270256 -12.7694 -5.12401 -5.10931 -9.39641 0.00493272 -0.0113613 -0.0449867 -3.51594 
41 -0.00231669 -0.00250829 -10.2146 -5.14681 -5.13255 -9.45305 0.00404192 -0.0113746 -0.0462726 -3.51567 
42 -0.00261878 -0.00230451 -7.66052 -5.16278 -5.14897 -9.49365 0.00312835 -0.0109915 -0.047088 -3.51548 
43 -0.00290139 -0.00209032 -5.10689 -5.1733 -5.15997 -9.521 0.00219619 -0.0103419 -0.0474503 -3.51535 
44 -0.0031628 -0.00186389 -2.55355 -5.17927 -5.16645 -9.53702 0.00124153 -0.00946728 -0.0474007 -3.51527 
45 0.0927328 2.15861 1.27494 -4.05264 -5.1334 -3.8375 -0.0522257 -0.442991 -0.0050577 -3.52909 
46 0.0662793 2.15985 3.8281 -4.04922 -5.13338 -3.82978 -0.0405335 -0.442442 -0.0143974 -3.5291 
47 0.03985 2.16076 6.38145 -4.04745 -5.1314 -3.81377 -0.028718 -0.441399 -0.0239496 -3.52912 
48 0.0134652 2.16134 8.93514 -4.04759 -5.12713 -3.78851 -0.0167705 -0.439902 -0.0339526 -3.52914 
49 -0.0128534 2.16158 11.4893 -4.05001 -5.12004 -3.75255 -0.00472155 -0.438089 -0.0446588 -3.52918 
50 -0.0390853 2.16146 14.0442 -4.05501 -5.10925 -3.70386 0.00730984 -0.436147 -0.0563706 -3.52922 
51 -0.0652138 2.161 16.6001 -4.06259 -5.09343 -3.63973 0.0190898 -0.434247 -0.069458 -3.52927 
52 -0.091227 2.16019 19.1572 -4.07221 -5.07058 -3.5567 0.0302672 -0.432502 -0.0843332 -3.52933 
53 -0.117118 2.15903 21.7158 -4.08242 -5.03778 -3.45051 0.0403854 -0.43094 -0.101355 -3.52941 
54 -0.142885 2.15753 24.2763 -4.09028 -4.99077 -3.31645 0.0489087 -0.429511 -0.12062 -3.52952 
55 -0.168529 2.15572 26.8393 -4.09039 -4.9236 -3.15008 0.0552851 -0.428097 -0.14158 -3.52966 
56 -0.194053 2.15365 29.405 -4.07379 -4.8286 -2.94894 0.0590972 -0.42651 -0.162511 -3.52985 
57 -0.219453 2.15142 31.9738 -4.0276 -4.69768 -2.71513 0.0603456 -0.424492 -0.180236 -3.53012 
58 -0.244712 2.1491 34.546 -3.93838 -4.52647 -2.45765 0.0597807 -0.421692 -0.191264 -3.53047 
59 -0.269793 2.14673 37.1213 -3.80082 -4.32036 -2.19069 0.0588881 -0.417672 -0.195363 -3.53088 
60 -0.294644 2.14424 39.6994 -3.62334 -4.09395 -1.92564 0.059166 -0.412089 -0.19764 -3.53128 
61 -0.319238 2.14151 42.2797 -3.4179 -3.85791 -1.66271 0.0612816 -0.405133 -0.204292 -3.53165 
62 -0.343609 2.13847 44.862 -3.19114 -3.60896 -1.39019 0.0644785 -0.397378 -0.222069 -3.53193 
63 -0.367912 2.1353 47.4464 -2.91362 -3.29699 -1.10419 0.0655405 -0.390984 -0.243154 -3.53223 
64 -0.392512 2.13371 50.032 -2.43052 -2.80165 -0.49115 0.06075 -0.411402 -0.208402 -3.53325 
65 -0.418483 2.1304 52.6263 -1.76575 -2.00553 -0.561402 0.0455009 -0.308971 -0.729904 -3.52457 
66 -0.44812 2.14653 55.1778 6.97658 7.73843 2.43091 0.033011 -0.597322 1.77023 -3.02528 
67 0.649859 2.05055 -55.162 1.38943 0.842367 -0.678428 -0.188254 -0.0991974 1.2076 -3.26036 
68 0.633027 2.08274 -52.6122 -1.112 -2.21872 -0.457743 -0.374495 -0.489287 -0.161385 -3.53567 
69 0.607028 2.08678 -50.0319 -2.00596 -2.5576 -0.878714 -0.167031 -0.427191 0.0745555 -3.53397 
70 0.581512 2.08791 -47.4534 -2.64041 -3.07379 -1.2156 -0.122981 -0.397989 0.144791 -3.5329 
71 0.556871 2.09117 -44.8714 -3.06251 -3.44335 -1.37397 -0.100171 -0.392843 0.190067 -3.53225 
72 0.532391 2.0953 -42.2896 -3.36219 -3.72884 -1.60245 -0.0900837 -0.396902 0.202839 -3.53182 
73 0.507778 2.0997 -39.709 -3.60655 -3.98469 -1.85261 -0.0878644 -0.402806 0.209579 -3.5314 
74 0.482935 2.10426 -37.1304 -3.80942 -4.22243 -2.11558 -0.0915778 -0.408554 0.213583 -3.53097 
75 0.457856 2.10896 -34.5544 -3.96762 -4.43693 -2.38423 -0.0995503 -0.41373 0.212559 -3.53054 
76 0.432568 2.11377 -31.9814 -4.07683 -4.61843 -2.64659 -0.109482 -0.418544 0.203841 -3.53017 
77 0.407099 2.11866 -29.4116 -4.14032 -4.76173 -2.88905 -0.118867 -0.423162 0.187464 -3.52987 
78 0.381464 2.1235 -26.8451 -4.16843 -4.869 -3.10166 -0.125839 -0.427488 0.16606 -3.52964 
79 0.35567 2.1282 -24.2814 -4.17303 -4.94665 -3.28026 -0.129531 -0.431322 0.142747 -3.52948 
80 0.329729 2.13267 -21.7203 -4.164 -5.00192 -3.42544 -0.129867 -0.434513 0.119847 -3.52936 
81 0.303657 2.13686 -19.1613 -4.14829 -5.04109 -3.54058 -0.127209 -0.437016 0.0986703 -3.52927 
82 0.277477 2.14074 -16.6039 -4.13038 -5.069 -3.63013 -0.122074 -0.438883 0.07975 -3.52921 
83 0.251212 2.14429 -14.0478 -4.11287 -5.0891 -3.69854 -0.114982 -0.440229 0.0631314 -3.52917 
84 0.224881 2.14751 -11.4928 -4.09716 -5.10375 -3.74979 -0.106392 -0.441198 0.0485994 -3.52913 
85 0.198501 2.15039 -8.93848 -4.08381 -5.11451 -3.78713 -0.0966868 -0.441922 0.0358213 -3.52911 
86 0.172087 2.15294 -6.38473 -4.07292 -5.12238 -3.81307 -0.0861863 -0.442484 0.0244269 -3.5291 
87 0.145648 2.15516 -3.83134 -4.06429 -5.12796 -3.82944 -0.075152 -0.442898 0.0140462 -3.52909 
88 0.119193 2.15705 -1.27816 -4.05762 -5.13158 -3.83739 -0.0637866 -0.443104 0.00432647 -3.52909 
89 0.215562 4.32531 -0.00238818 -3.38868 -4.73778 -3.2992 -0.07482 -0.921258 0.0350941 -3.53368 
90 0.28559 6.49785 1.27341 -2.77225 -4.34051 -2.86147 -0.0793158 -1.3477 0.0492586 -3.53385 
91 2.20538 2.73613 -0.00137911 -3.38815 -3.53965 -3.05243 -0.418143 -0.324335 0.245578 -3.52984 
92 2.17176 2.76285 2.55172 -3.37497 -3.55033 -3.05009 -0.417087 -0.32976 0.238076 -3.52984 
93 2.29164 4.92752 1.27393 -2.72322 -3.56783 -2.73047 -0.346701 -0.796454 0.0136231 -3.53337 
94 4.28834 3.33607 1.27586 -3.39981 -2.89542 -2.72792 -0.49921 -0.208364 0.758356 -3.53337 
95 0.162764 4.32785 2.55055 -3.38306 -4.73986 -3.29555 -0.0597403 -0.921199 0.0168289 -3.53368 
96 0.109984 4.3297 5.10361 -3.38095 -4.74208 -3.28572 -0.0443462 -0.920622 -0.00168484 -3.53369 
97 0.206427 6.50098 3.82613 -2.76796 -4.34439 -2.85586 -0.0611539 -1.34769 0.0231324 -3.53385 
98 2.2314 4.95501 3.82697 -2.71243 -3.57838 -2.72535 -0.336163 -0.798216 -0.00218483 -3.53337 
99 0.127313 6.50305 6.37902 -2.76863 -4.34995 -2.8456 -0.0425908 -1.34749 -0.0035796 -3.53385 
100 4.24728 3.38789 3.82892 -3.38578 -2.91058 -2.72195 -0.504546 -0.222675 0.752284 -3.53337 
101 2.13781 2.78911 5.10496 -3.36337 -3.56246 -3.04095 -0.414394 -0.335028 0.230526 -3.52984 
102 2.10355 2.81487 7.65846 -3.35364 -3.576 -3.02437 -0.409857 -0.340335 0.222689 -3.52983 
103 2.17084 4.98164 6.3802 -2.70511 -3.59056 -2.71396 -0.32378 -0.799882 -0.018426 -3.53337 
104 4.20556 3.4391 6.38218 -3.37391 -2.92856 -2.70973 -0.507717 -0.237098 0.745971 -3.53336 
105 0.0572582 4.33085 7.65693 -3.38298 -4.74439 -3.2692 -0.0286066 -0.919638 -0.0208407 -3.53369 
106 0.00462092 4.33131 10.2106 -3.38993 -4.74661 -3.24511 -0.0125598 -0.918449 -0.041062 -3.53369 
107 0.0482951 6.50405 8.93221 -2.77511 -4.35718 -2.83021 -0.0237089 -1.34736 -0.0314147 -3.53384 
108 2.11 5.0074 8.93376 -2.70187 -3.60426 -2.69562 -0.309454 -0.801735 -0.0355612 -3.53336 
109 -0.030586 6.50398 11.4858 -2.78821 -4.36605 -2.80885 -0.00467781 -1.34755 -0.0609796 -3.53381 
110 4.16319 3.48969 8.93576 -3.36456 -2.94936 -2.69055 -0.508472 -0.252008 0.739136 -3.53336 
111 2.069 2.84013 10.2124 -3.34617 -3.5908 -2.99928 -0.403242 -0.345946 0.214282 -3.52982 
112 2.03418 2.86486 12.7669 -3.34136 -3.60659 -2.96414 -0.39432 -0.352211 0.20494 -3.52981 
113 2.04891 5.03226 11.4878 -2.70338 -3.61931 -2.66929 -0.293107 -0.804132 -0.0541462 -3.53336 
114 4.12019 3.53963 11.4898 -3.35814 -2.97303 -2.6633 -0.50652 -0.26785 0.731436 -3.53336 
115 -0.0478956 4.33106 12.7649 -3.40252 -4.74841 -3.21213 0.00365651 -0.917271 -0.0628403 -3.53369 
116 -0.100265 4.3301 15.32 -3.4213 -4.74917 -3.16836 0.0198069 -0.916266 -0.0867507 -3.53369 
117 -0.109297 6.50282 14.0401 -2.80856 -4.37636 -2.78023 0.014267 -1.34824 -0.0929723 -3.53378 
118 1.98758 5.05619 14.0425 -2.71025 -3.63539 -2.63349 -0.274688 -0.80748 -0.0748413 -3.53335 
119 -0.18781 6.50056 16.5951 -2.83662 -4.38767 -2.74247 0.0328544 -1.34948 -0.128172 -3.53374 
120 4.07656 3.58888 14.0445 -3.35501 -2.9995 -2.62646 -0.501536 -0.285153 0.722428 -3.53335 
121 1.9991 2.88905 15.3222 -3.33948 -3.62288 -2.91691 -0.382881 -0.359542 0.194209 -3.52979 
122 1.96378 2.91267 17.8786 -3.34049 -3.63881 -2.85496 -0.368726 -0.36839 0.181559 -3.52977 
123 1.92604 5.07917 16.5981 -2.72289 -3.65199 -2.58624 -0.254142 -0.812201 -0.0983934 -3.53334 
124 4.03233 3.6374 16.6001 -3.35535 -3.02862 -2.57803 -0.493161 -0.304522 0.711552 -3.53334 
125 -0.152467 4.32842 17.8761 -3.44647 -4.74783 -3.11119 0.0355744 -0.915488 -0.113426 -3.53368 
126 -0.204485 4.32603 20.4334 -3.47769 -4.74267 -3.03723 0.0505746 -0.914874 -0.143465 -3.53368 
127 -0.2661 6.4972 19.1512 -2.87256 -4.39914 -2.69292 0.0508043 -1.35118 -0.167378 -3.53368 
128 1.8643 5.10115 19.1548 -2.74147 -3.66819 -2.52497 -0.231422 -0.818716 -0.125578 -3.53332 
129 -0.344143 6.49274 21.7085 -2.91607 -4.40915 -2.62802 0.0678419 -1.35308 -0.211265 -3.53362 
130 3.98749 3.68516 19.1568 -3.3591 -3.05989 -2.51555 -0.481018 -0.326609 0.698136 -3.53333 
131 1.9282 2.9357 20.4363 -3.34383 -3.65298 -2.77507 -0.351687 -0.379189 0.166426 -3.52974 
132 1.8924 2.95812 22.9957 -3.34801 -3.6631 -2.6735 -0.33168 -0.392267 0.148336 -3.52971 
133 1.80238 5.12213 21.7129 -2.76562 -3.6825 -2.44654 -0.20652 -0.827409 -0.157072 -3.53329 
134 3.94204 3.73211 21.7149 -3.36565 -3.09228 -2.43608 -0.464787 -0.352041 0.681443 -3.5333 
135 -0.256309 4.32293 22.9924 -3.51372 -4.73088 -2.94223 0.0643532 -0.914261 -0.177234 -3.53367 
136 -0.307931 4.31917 25.5534 -3.55164 -4.70801 -2.82131 0.0763707 -0.913427 -0.214492 -3.53368 
137 -0.421915 6.48721 24.2675 -2.9659 -4.41481 -2.54314 0.0836907 -1.35473 -0.260082 -3.53355 
138 1.74028 5.14208 24.2728 -2.79409 -3.69243 -2.34732 -0.179577 -0.838563 -0.193198 -3.53326 
139 -0.499393 6.48069 26.8285 -3.01905 -4.41122 -2.43263 0.0980247 -1.35559 -0.313115 -3.53349 
140 3.89601 3.77824 24.2747 -3.37349 -3.12381 -2.33629 -0.444353 -0.381235 0.660824 -3.53327 
141 1.85638 2.97994 25.5572 -3.34998 -3.6654 -2.5463 -0.308859 -0.407637 0.127161 -3.52966 
142 1.82018 3.0012 28.1212 -3.34414 -3.65392 -2.39003 -0.283855 -0.424597 0.103614 -3.5296 
143 1.67804 5.16104 26.8349 -2.82391 -3.694 -2.22358 -0.151092 -0.852179 -0.233442 -3.53322 
144 3.84944 3.82352 26.8367 -3.37952 -3.15082 -2.21273 -0.420068 -0.414017 0.636042 -3.53322 
145 -0.359348 4.31483 28.1169 -3.5856 -4.66731 -2.66962 0.0860028 -0.912142 -0.253786 -3.53372 
146 -0.41056 4.31005 30.6833 -3.60514 -4.5993 -2.48391 0.0926349 -0.910169 -0.291774 -3.5338 
147 -0.576561 6.47334 29.3921 -3.0693 -4.39048 -2.29048 0.110367 -1.35514 -0.36791 -3.53346 
148 1.6157 5.17912 29.3995 -2.84919 -3.68103 -2.07218 -0.122237 -0.867562 -0.275693 -3.53316 
149 -0.653405 6.46543 31.9587 -3.10543 -4.34082 -2.11201 0.119978 -1.35301 -0.419522 -3.53349 
150 3.80244 3.86803 29.4013 -3.37797 -3.16703 -2.06224 -0.393108 -0.448928 0.607892 -3.53316 
151 1.78389 3.02198 30.6881 -3.32113 -3.61987 -2.20311 -0.258105 -0.441161 0.0799592 -3.52955 
152 1.74765 3.04247 33.2583 -3.26763 -3.55207 -1.98765 -0.233995 -0.453782 0.0604081 -3.52954 
153 1.55337 5.19655 31.9672 -2.85945 -3.64451 -1.89161 -0.0951525 -0.882603 -0.315375 -3.5331 
154 3.75519 3.91188 31.9688 -3.3589 -3.16241 -1.88293 -0.365765 -0.482373 0.579054 -3.5331 
155 -0.461556 4.30504 33.253 -3.59444 -4.49268 -2.26541 0.0959656 -0.907101 -0.323279 -3.53396 
156 -0.512291 4.30001 35.8261 -3.53568 -4.33856 -2.02283 0.0965007 -0.902075 -0.343769 -3.53423 
157 -0.729903 6.45733 34.5287 -3.10971 -4.2468 -1.89757 0.125968 -1.34872 -0.460909 -3.53362 
158 1.49121 5.21365 34.5382 -2.83849 -3.57235 -1.68361 -0.0728228 -0.893115 -0.345518 -3.53307 
159 -0.805984 6.44942 37.1024 -3.06079 -4.09377 -1.6573 0.127977 -1.34096 -0.486423 -3.53389 
160 3.708 3.95532 34.5397 -3.30721 -3.12298 -1.67592 -0.341235 -0.508531 0.554492 -3.53307 
161 1.71165 3.06286 35.8318 -3.16969 -3.44049 -1.75084 -0.214218 -0.45863 0.0494628 -3.5296 
162 1.67603 3.08325 38.4084 -3.02175 -3.2833 -1.50341 -0.199928 -0.455364 0.0467077 -3.52976 
163 1.42946 5.23083 37.1126 -2.76735 -3.4518 -1.45506 -0.0579548 -0.893869 -0.36022 -3.53313 
164 3.66125 3.99863 37.1139 -3.20479 -3.03445 -1.44783 -0.322338 -0.522034 0.539353 -3.53312 
165 -0.56268 4.29503 38.4024 -3.41994 -4.13927 -1.77129 0.0958525 -0.893937 -0.354793 -3.53458 
166 -0.61263 4.28991 40.9813 -3.25471 -3.91083 -1.5231 0.0962017 -0.88218 -0.365382 -3.53492 
167 -0.881519 6.44179 39.6793 -2.94696 -3.88134 -1.41101 0.127212 -1.32802 -0.499192 -3.53426 
168 1.36838 5.24827 39.69 -2.63545 -3.27818 -1.21777 -0.0509583 -0.883641 -0.36279 -3.5333 
169 -0.956401 6.43415 42.2586 -2.7766 -3.62954 -1.17629 0.126345 -1.30988 -0.512043 -3.53461 
170 3.61519 4.04196 39.6912 -3.0414 -2.89177 -1.21099 -0.309502 -0.524143 0.532218 -3.53329 
171 1.64081 3.10356 40.9875 -2.83219 -3.08939 -1.25307 -0.18948 -0.449294 0.0440918 -3.53 
172 1.60591 3.12365 43.5687 -2.61099 -2.86678 -0.99742 -0.180377 -0.44702 0.0332273 -3.53027 
173 1.30799 5.26582 42.2697 -2.44924 -3.06062 -0.981832 -0.0490425 -0.868972 -0.3677 -3.53355 
174 3.56976 4.0852 42.2708 -2.82447 -2.70336 -0.977144 -0.300563 -0.524724 0.522191 -3.53354 
175 -0.662125 4.28447 43.5622 -3.05122 -3.66355 -1.27761 0.0986772 -0.867665 -0.384003 -3.53523 
176 -0.711333 4.27865 46.1445 -2.82143 -3.39523 -1.01465 0.102472 -0.852499 -0.416222 -3.53549 
177 -1.03069 6.42628 44.8393 -2.55671 -3.34522 -0.959605 0.126718 -1.28885 -0.530318 -3.53496 
178 1.24817 5.2833 44.851 -2.21591 -2.80378 -0.748877 -0.0504893 -0.858371 -0.38653 -3.53386 
179 -1.10477 6.4185 47.4203 -2.29409 -3.01662 -0.772513 0.129171 -1.26942 -0.544385 -3.53529 
180 3.52476 4.1283 44.852 -2.55933 -2.47654 -0.752162 -0.292885 -0.532711 0.50064 -3.53383 
181 1.57111 3.14347 46.1516 -2.36277 -2.61792 -0.719024 -0.172239 -0.456176 0.00560802 -3.53054 
182 1.53627 3.16344 48.7364 -2.08838 -2.3613 -0.347654 -0.183409 -0.479157 -0.0351421 -3.53015 
183 1.18845 5.30075 47.4331 -1.94171 -2.50485 -0.517826 -0.0636501 -0.864556 -0.432105 -3.53412 
184 3.47991 4.1713 47.4338 -2.23972 -2.22073 -0.544414 -0.28658 -0.558771 0.456072 -3.53404 
185 -0.760746 4.27348 48.7284 -2.60141 -3.07338 -0.666339 0.0965536 -0.842778 -0.423421 -3.53517 
186 -0.811621 4.26877 51.3169 -1.98835 -2.35096 0.313316 0.0838996 -0.842221 -0.652845 -3.53805 
187 -1.17889 6.41384 50.0002 -2.05521 -2.54103 -0.33045 0.0856833 -1.27532 -0.621603 -3.53574 
188 1.12775 5.31799 50.0156 -1.56929 -2.07901 -0.0208677 -0.110074 -0.944571 -0.598149 -3.53484 
189 -1.25707 6.40546 52.5877 -1.61248 -2.48694 0.643189 0.175822 -1.3163 -0.613017 -3.53281 
190 3.43505 4.21346 50.0156 -1.75959 -1.85325 -0.0396916 -0.309453 -0.668224 0.310724 -3.5349 
191 1.50027 3.18358 51.3264 -1.43167 -1.7013 0.657706 -0.172625 -0.548768 -0.132875 -3.53273 
192 1.46587 3.20964 53.9052 0.026712 0.954001 -0.795845 0.56631 -0.560972 0.138987 -3.37565 
193 1.06597 5.33731 52.6041 -1.24917 -1.89858 0.441513 -0.23698 -0.801318 -0.410814 -3.52779 
194 3.38747 4.26008 52.6041 -1.41015 -1.71361 0.389843 -0.390663 -0.639432 0.587355 -3.52746 
195 -0.866323 4.2769 53.8949 -0.050866 -0.206111 -1.18044 0.0793717 -1.26166 1.02745 -3.38132 
196 1.3298 4.1174 -56.3442 5.06942 2.9056 1.60242 -1.25472 -0.273893 0.110262 -2.79034 
197 -1.33605 6.40133 55.1665 4.18008 2.79745 1.28998 0.319924 -1.52319 0.197864 -3.26107 
198 1.00488 5.36129 55.1754 5.64206 6.63185 2.70773 0.369851 -0.63646 -0.0326327 -3.15047 
199 1.98371 6.26223 -55.1334 6.93987 9.11552 2.92912 0.13419 -0.847904 -0.52566 -3.02309 
200 3.34328 4.30996 55.1754 5.53064 7.35765 2.8691 0.118708 -0.278634 0.562627 -3.15115 
201 2.87095 2.09325 -56.362 4.04253 6.0065 1.88099 -3.16453 0.252639 0.341785 -2.79939 
202 2.84551 2.1252 -53.8874 0.164989 0.763277 -3.02651 -0.982113 -0.732816 -0.162365 -3.51266 
203 3.53831 4.21674 -55.1525 6.03165 6.27391 1.75936 0.302437 -1.21951 -0.0444745 -3.1433 
204 5.07312 2.13635 -55.1525 6.04997 7.03886 2.00316 0.446066 -0.528121 0.0805326 -3.14511 
205 1.29262 4.16451 -53.8815 0.861248 -0.348284 -3.6751 -0.408886 -0.573879 0.839004 -3.51412 
206 1.24176 4.17585 -51.3147 -1.28713 -1.91128 -0.377555 -0.214934 -0.880902 0.220679 -3.53903 
207 1.90264 6.26187 -52.5941 -0.918023 -1.45682 -0.573098 -0.184189 -1.16806 0.820093 -3.52792 
208 3.4607 4.22944 -52.6036 -0.748967 -0.925863 0.0954199 -0.67752 -0.496108 0.191353 -3.53019 
209 1.82403 6.27282 -50.0101 -1.64464 -2.3298 -0.269648 -0.19768 -1.2782 0.428605 -3.53673 
210 5.01221 2.17771 -52.6036 -1.34192 -0.348577 0.0545944 -0.502569 0.019164 0.991487 -3.52952 
211 2.80522 2.14769 -51.32 -1.10367 -0.946905 -0.11353 -0.278205 -0.33352 0.262316 -3.53415 
212 2.77238 2.17446 -48.7405 -1.97192 -1.83878 -0.548996 -0.290744 -0.220653 0.33386 -3.53088 
213 3.40036 4.25787 -50.02 -1.4324 -1.65464 -0.142311 -0.408955 -0.70643 0.28489 -3.53497 
214 4.971 2.23184 -50.02 -1.84438 -1.27432 -0.115186 -0.296567 0.0230286 0.834622 -3.53501 
215 1.18979 4.18023 -48.7356 -2.18113 -2.76025 -0.79515 -0.179399 -0.844036 0.274166 -3.5364 
216 1.14009 4.18595 -46.1542 -2.64032 -3.19324 -0.982268 -0.160813 -0.828588 0.394807 -3.53605 
217 1.74889 6.27831 -47.4307 -2.10364 -2.83521 -0.683916 -0.211791 -1.23691 0.539373 -3.53589 
218 3.34529 4.28722 -47.4412 -1.9004 -2.2098 -0.567507 -0.299939 -0.635246 0.333158 -3.53415 
219 1.67515 6.28984 -44.8497 -2.47351 -3.19167 -0.870619 -0.197302 -1.24029 0.599132 -3.53535 
220 4.93505 2.28423 -47.4404 -2.3241 -1.78937 -0.543769 -0.210688 0.108753 0.862697 -3.5342 
221 2.74229 2.20147 -46.1595 -2.36781 -2.26993 -0.742183 -0.228826 -0.158331 0.389352 -3.53075 
222 2.71405 2.2299 -43.5778 -2.681 -2.59278 -0.952731 -0.21142 -0.146767 0.410152 -3.53038 
223 3.29197 4.31921 -44.8606 -2.23734 -2.57436 -0.722202 -0.258257 -0.621133 0.36894 -3.53393 
224 4.90231 2.33713 -44.8596 -2.66067 -2.14401 -0.725066 -0.175213 0.146261 0.894372 -3.53393 
225 1.09109 4.19423 -43.5724 -2.97985 -3.51285 -1.20962 -0.146714 -0.836625 0.421323 -3.53554 
226 1.04197 4.2033 -40.9914 -3.24058 -3.78793 -1.45046 -0.143532 -0.850049 0.428555 -3.5351 
227 1.60157 6.30313 -42.2688 -2.75683 -3.49758 -1.09714 -0.195811 -1.2582 0.615551 -3.53485 
228 3.23953 4.35271 -42.2798 -2.51158 -2.8707 -0.921544 -0.240347 -0.623542 0.386972 -3.53361 
229 1.52748 6.31717 -39.6891 -2.96843 -3.76466 -1.34071 -0.202222 -1.2778 0.61971 -3.53439 
230 4.87106 2.39096 -42.2788 -2.94473 -2.42622 -0.930479 -0.163614 0.158001 0.919794 -3.5336 
231 2.68633 2.25914 -40.9967 -2.93766 -2.85447 -1.18216 -0.207867 -0.144952 0.42442 -3.53007 
232 2.65867 2.28902 -38.4172 -3.15167 -3.0697 -1.42371 -0.212122 -0.144659 0.436076 -3.52982 
233 3.18729 4.38732 -39.6999 -2.72958 -3.11077 -1.14477 -0.234327 -0.628881 0.397563 -3.53334 
234 4.84037 2.44581 -39.6989 -3.18213 -2.64422 -1.15394 -0.163658 0.162569 0.941736 -3.53333 
235 0.992421 4.2127 -38.412 -3.44092 -4.0323 -1.70122 -0.148007 -0.863084 0.430068 -3.53469 
236 0.942403 4.22236 -35.8351 -3.58244 -4.24255 -1.95647 -0.157216 -0.873914 0.42497 -3.53431 
237 1.45272 6.33176 -37.1116 -3.11123 -3.9882 -1.59259 -0.212729 -1.29436 0.614934 -3.53399 
238 3.13498 4.42292 -37.1221 -2.89158 -3.2945 -1.37814 -0.237342 -0.635956 0.399815 -3.53315 
239 1.37733 6.34692 -34.5372 -3.18608 -4.15706 -1.83899 -0.223052 -1.30735 0.596311 -3.53368 
240 4.80994 2.50168 -37.121 -3.36994 -2.80081 -1.38628 -0.173591 0.161815 0.955819 -3.53315 
241 2.63099 2.31951 -35.84 -3.32204 -3.2388 -1.66963 -0.223579 -0.147269 0.441882 -3.52964 
242 2.60324 2.35051 -33.2656 -3.44425 -3.35955 -1.90959 -0.242021 -0.15606 0.437992 -3.52955 
243 3.08253 4.45939 -34.5471 -2.99537 -3.42054 -1.60804 -0.248713 -0.647953 0.388507 -3.53307 
244 4.77969 2.55843 -34.5459 -3.5029 -2.89799 -1.6155 -0.193532 0.150808 0.956996 -3.53306 
245 0.89198 4.23229 -33.2612 -3.66452 -4.40972 -2.20479 -0.167793 -0.882715 0.409232 -3.534 
246 0.841223 4.24239 -30.6907 -3.69461 -4.53104 -2.43264 -0.176739 -0.890217 0.381829 -3.5338 
247 1.30142 6.36249 -31.9663 -3.20293 -4.26921 -2.06366 -0.230134 -1.31774 0.561556 -3.5335 
248 3.02984 4.49644 -31.9753 -3.0457 -3.49606 -1.82181 -0.266756 -0.665744 0.362505 -3.53307 
249 1.22506 6.37813 -29.3989 -3.17962 -4.33434 -2.25556 -0.232924 -1.32602 0.514256 -3.53342 
250 4.74946 2.61579 -31.974 -3.58351 -2.9451 -1.82939 -0.221909 0.127182 0.945142 -3.53306 
251 2.57536 2.38185 -30.6945 -3.51977 -3.43614 -2.13235 -0.265677 -0.17159 0.424209 -3.52954 
252 2.5472 2.41328 -28.1267 -3.55716 -3.47903 -2.32951 -0.291618 -0.191395 0.403894 -3.52958 
253 2.97673 4.53365 -29.4069 -3.055 -3.53505 -2.01117 -0.288476 -0.686812 0.326335 -3.53312 
254 4.71896 2.67342 -29.4055 -3.62224 -2.95738 -2.01935 -0.255325 0.0937959 0.924707 -3.53311 
255 0.790174 4.25244 -28.1235 -3.68737 -4.61244 -2.63044 -0.182259 -0.896753 0.34595 -3.53368 
256 0.738852 4.2622 -25.5594 -3.65799 -4.66364 -2.79469 -0.183767 -0.902266 0.306252 -3.53362 
257 1.14828 6.39343 -26.8348 -3.1337 -4.36619 -2.41146 -0.231572 -1.33217 0.460559 -3.53343 
258 2.92305 4.57062 -26.8416 -3.03746 -3.55121 -2.1728 -0.310607 -0.708037 0.286036 -3.53318 
259 1.0711 6.40808 -24.2734 -3.07843 -4.37712 -2.53372 -0.226537 -1.33633 0.405918 -3.53347 
260 4.6879 2.73103 -26.84 -3.63152 -2.94944 -2.18139 -0.290124 0.0556444 0.900691 -3.53316 
261 2.51862 2.44458 -25.5619 -3.56746 -3.4998 -2.49716 -0.317082 -0.212402 0.381057 -3.52963 
262 2.48953 2.47562 -22.9998 -3.56055 -3.50784 -2.63523 -0.340201 -0.23238 0.358596 -3.52968 
263 2.86871 4.60707 -24.279 -3.00496 -3.55475 -2.30685 -0.330586 -0.727249 0.246182 -3.53323 
264 4.65604 2.7884 -24.2773 -3.62211 -2.93215 -2.31527 -0.323609 0.0171036 0.876675 -3.53321 
265 0.687271 4.27151 -22.9979 -3.61832 -4.69415 -2.92668 -0.181438 -0.906683 0.266587 -3.5336 
266 0.635451 4.28024 -20.4386 -3.57616 -4.71149 -3.03026 -0.175798 -0.910081 0.229311 -3.5336 
267 0.993566 6.42185 -21.7141 -3.02243 -4.37633 -2.6274 -0.218332 -1.33896 0.353864 -3.53354 
268 2.81366 4.64282 -21.7187 -2.96596 -3.55236 -2.41549 -0.346931 -0.743444 0.209319 -3.53327 
269 0.915705 6.43461 -19.1567 -2.97056 -4.36993 -2.69805 -0.207496 -1.34058 0.306115 -3.5336 
270 4.62328 2.8454 -21.7169 -3.60205 -2.91253 -2.42312 -0.354274 -0.0190375 0.854667 -3.53325 
271 2.4599 2.5063 -20.4399 -3.5439 -3.50966 -2.74614 -0.360051 -0.25016 0.338072 -3.52972 
272 2.42972 2.53657 -17.8819 -3.52257 -3.50926 -2.83347 -0.376394 -0.265375 0.320072 -3.52976 
273 2.75791 4.67778 -19.1603 -2.92585 -3.54807 -2.50186 -0.359106 -0.756461 0.176444 -3.5333 
274 4.58956 2.90197 -19.1585 -3.57681 -2.89463 -2.50831 -0.381519 -0.0514692 0.83552 -3.53329 
275 0.583419 4.2883 -17.8811 -3.53612 -4.72097 -3.11011 -0.167477 -0.912651 0.195481 -3.53361 
276 0.531207 4.29568 -15.3249 -3.5005 -4.72609 -3.17077 -0.157088 -0.91463 0.165292 -3.53363 
277 0.837564 6.4463 -16.6007 -2.92511 -4.36166 -2.75073 -0.194584 -1.34169 0.263128 -3.53367 
278 2.70149 4.71192 -16.6034 -2.88774 -3.54414 -2.56938 -0.367198 -0.766621 0.14762 -3.53333 
279 0.759181 6.4569 -14.0457 -2.88674 -4.35365 -2.78961 -0.180125 -1.34262 0.22463 -3.53372 
280 4.55488 2.95804 -16.6016 -3.54984 -2.88044 -2.57448 -0.4053 -0.0799083 0.819373 -3.53331 
281 2.39902 2.5664 -15.3253 -3.49976 -3.50893 -2.90106 -0.389403 -0.278141 0.304611 -3.52978 
282 2.36782 2.59579 -12.7698 -3.47729 -3.50979 -2.95247 -0.399439 -0.288812 0.291412 -3.5298 
283 2.64446 4.7452 -14.0477 -2.85315 -3.5417 -2.62131 -0.37162 -0.774439 0.122427 -3.53334 
284 4.51927 3.01362 -14.0459 -3.52319 -2.87073 -2.62507 -0.425857 -0.10466 0.805974 -3.53333 
285 0.478843 4.30236 -12.7698 -3.47022 -4.72899 -3.21613 -0.145169 -0.916234 0.13845 -3.53364 
286 0.426354 4.30833 -10.2155 -3.44529 -4.73091 -3.24934 -0.132163 -0.917624 0.114438 -3.53365 
287 0.680591 6.4664 -11.4915 -2.85518 -4.34694 -2.81787 -0.164581 -1.34358 0.189996 -3.53376 
288 2.58686 4.77765 -11.493 -2.82262 -3.54121 -2.66053 -0.372902 -0.78046 0.100251 -3.53335 
289 0.601824 6.47482 -8.93796 -2.82964 -4.34202 -2.8379 -0.148314 -1.34462 0.158475 -3.53379 
290 4.48277 3.06867 -11.4911 -3.49791 -2.86553 -2.66304 -0.443544 -0.1263 0.79489 -3.53334 
291 2.33616 2.62474 -10.2152 -3.45613 -3.51235 -2.99075 -0.406925 -0.297818 0.280078 -3.52982 
292 2.30406 2.65325 -7.66125 -3.43666 -3.51669 -3.01833 -0.412259 -0.305571 0.270194 -3.52983 
293 2.52872 4.80927 -8.93889 -2.79611 -3.54279 -2.6894 -0.371562 -0.785157 0.080437 -3.53336 
294 4.44543 3.12322 -8.93701 -3.47449 -2.86456 -2.69076 -0.458724 -0.145473 0.785639 -3.53335 
295 0.373762 4.31361 -7.66173 -3.42529 -4.73252 -3.2728 -0.118418 -0.918877 0.0926638 -3.53366 
296 0.321085 4.31819 -5.1084 -3.40956 -4.73413 -3.28826 -0.104188 -0.919973 0.0725397 -3.53366 
297 0.522909 6.48216 -6.38481 -2.80921 -4.33897 -2.85137 -0.131572 -1.3457 0.129312 -3.53382 
298 2.4701 4.84006 -6.38532 -2.77327 -3.54634 -2.70975 -0.368033 -0.788894 0.0623697 -3.53336 
299 0.443875 6.48844 -3.83194 -2.79307 -4.33776 -2.8594 -0.114483 -1.34667 0.101802 -3.53384 
300 4.40729 3.17724 -6.38343 -3.45303 -2.86741 -2.71004 -0.471713 -0.162786 0.77775 -3.53336 
301 2.27155 2.68132 -5.10773 -3.41891 -3.52276 -3.03705 -0.415773 -0.312412 0.261368 -3.52984 
302 2.23865 2.70895 -2.55449 -3.40278 -3.53044 -3.04817 -0.417698 -0.318603 0.25326 -3.52984 
303 2.41102 4.87004 -3.83209 -2.75369 -3.55176 -2.72288 -0.362624 -0.791922 0.0455099 -3.53337 
304 4.36837 3.23073 -3.83019 -3.43348 -2.87369 -2.72218 -0.482735 -0.178763 0.770804 -3.53336 
305 0.268345 4.32209 -2.55533 -3.39749 -4.73587 -3.29684 -0.089633 -0.920813 0.0535158 -3.53367 
306 0.364755 6.49367 -1.27924 -2.78076 -4.3383 -2.86267 -0.0970768 -1.34737 0.0753075 -3.53385 
307 2.35152 4.89919 -1.27905 -2.73704 -3.55895 -2.72965 -0.355501 -0.794401 0.0293953 -3.53337 
308 4.32871 3.28368 -1.27713 -3.41574 -2.8831 -2.72801 -0.491902 -0.193835 0.764441 -3.53336 
309 2.43656 7.09145 -0.00288598 -2.21272 -3.35751 -2.40108 -0.317981 -1.19847 -0.184193 -3.53292 
310 0.434822 8.66873 -0.00326484 -2.2464 -4.01218 -2.49491 -0.0999299 -1.7337 0.0853783 -3.53361 