ITEM: TIMESTEP
409
ITEM: NUMBER OF ATOMS
37664
ITEM: BOX BOUNDS ff ff ff
-100 100
-100 100
-156.15 156.15
ITEM: ATOMS id x y z v_peratom_sxx v_peratom_syy v_peratom_szz v_peratom_sxy v_peratom_sxz v_peratom_syz c_atomPE 
1 -0.00391545 -0.00204222 0.000951146 -5.17828 -5.16984 -9.53941 0.000878657 -0.0134282 -0.0367939 -3.51526 
2 -0.00411644 -0.00179555 2.55416 -5.17752 -5.16914 -9.53782 0.000158497 -0.014207 -0.036095 -3.51527 
3 -0.00432941 -0.00150791 5.10745 -5.17234 -5.1644 -9.5264 -0.000783851 -0.0135749 -0.0353342 -3.51532 
4 -0.00454816 -0.00118511 7.66096 -5.16193 -5.15502 -9.50378 -0.0019399 -0.0110825 -0.0346134 -3.51542 
5 -0.00475694 -0.000841174 10.2149 -5.14535 -5.14016 -9.46796 -0.00322656 -0.00660954 -0.0339017 -3.51558 
6 -0.00493263 -0.00049483 12.7693 -5.12151 -5.11866 -9.41639 -0.00449994 -0.000452184 -0.033033 -3.51582 
7 -0.00504976 -0.000164523 15.3246 -5.08902 -5.08895 -9.34591 -0.00559972 0.00673159 -0.0317821 -3.51614 
8 -0.00508648 0.000135775 17.8809 -5.04603 -5.04881 -9.25266 -0.00639914 0.0140976 -0.0299723 -3.51657 
9 -0.00502945 0.000398385 20.4386 -4.98978 -4.9952 -9.13194 -0.00683614 0.0208273 -0.0275575 -3.51712 
10 -0.00487591 0.000621206 22.9981 -4.91638 -4.92397 -8.97824 -0.00691846 0.0262964 -0.0246522 -3.51781 
11 -0.00463301 0.000805337 25.5599 -4.82053 -4.82969 -8.78588 -0.00670896 0.0301646 -0.0215086 -3.51867 
12 -0.00431506 0.000952253 28.1242 -4.69588 -4.70597 -8.55065 -0.0063009 0.0323852 -0.0184573 -3.5197 
13 -0.00393959 0.00106165 30.6916 -4.53646 -4.54692 -8.27294 -0.00579159 0.033153 -0.0158254 -3.52089 
14 -0.00352341 0.00113059 33.2622 -4.34055 -4.35093 -7.96143 -0.00526032 0.0328176 -0.0138567 -3.52219 
15 -0.00307944 0.00115381 35.8361 -4.11591 -4.12588 -7.63356 -0.00475594 0.031789 -0.0126655 -3.52346 
16 -0.00261504 0.00112452 38.4127 -3.87849 -3.88785 -7.30764 -0.00429504 0.030453 -0.0122407 -3.52457 
17 -0.00213119 0.00103459 40.9919 -3.63987 -3.64847 -6.9901 -0.00386566 0.0291181 -0.0124996 -3.52546 
18 -0.00162025 0.000873312 43.5732 -3.40105 -3.40874 -6.66815 -0.00342552 0.0280713 -0.0133674 -3.52619 
19 -0.00106207 0.000624791 46.157 -3.13694 -3.14339 -6.30494 -0.00286933 0.0275852 -0.0147955 -3.52693 
20 -0.000430241 0.000264083 48.7436 -2.75392 -2.75748 -5.86489 -0.00160166 0.0271855 -0.0166828 -3.52781 
21 5.95933e-07 -4.11185e-08 51.3317 -1.92318 -1.92292 -4.9208 0.000129216 -0.00139115 0.00087223 -3.53204 
22 4.01304e-07 -1.42881e-06 53.9138 -0.851913 -0.851924 -8.9178 4.16077e-08 -2.75246e-05 -7.18704e-05 -3.48169 
23 8.71386e-07 -1.98378e-06 56.3885 1.68559 1.6856 1.87688 -1.5739e-05 2.4249e-05 -3.73362e-07 -2.55581 
24 -1.23087e-07 -1.12453e-06 -53.8876 -2.60695 -2.60697 -6.5496 -1.6555e-05 8.96264e-06 -3.27007e-05 -3.40183 
25 1.02659e-07 -1.55837e-06 -51.3239 -2.0792 -2.07927 -5.57955 -0.000385951 0.000948332 0.0021237 -3.52873 
26 -0.00024596 -0.000603745 -48.7462 -2.69432 -2.69264 -6.14802 0.00516484 -0.0155255 -0.0377403 -3.52639 
27 -0.000564263 -0.00144862 -46.1646 -3.0213 -3.01809 -6.34814 0.00915681 -0.0132876 -0.0350965 -3.52678 
28 -0.000789469 -0.00208766 -43.5822 -3.30291 -3.29795 -6.60842 0.0102419 -0.00960378 -0.0330073 -3.52634 
29 -0.000932463 -0.00257213 -41.0007 -3.55858 -3.55152 -6.89657 0.010453 -0.005848 -0.0315083 -3.52574 
30 -0.00102042 -0.00293218 -38.421 -3.80909 -3.79985 -7.20506 0.010098 -0.00235091 -0.0303947 -3.52491 
31 -0.00108143 -0.00318604 -35.8434 -4.05569 -4.04444 -7.52987 0.00931558 0.000547926 -0.0295565 -3.52385 
32 -0.0011434 -0.00334799 -33.2685 -4.28896 -4.27612 -7.85992 0.00824305 0.00250422 -0.0290083 -3.52262 
33 -0.00123128 -0.00343228 -30.6968 -4.49583 -4.48201 -8.17764 0.00704711 0.00329557 -0.0288181 -3.52133 
34 -0.00136298 -0.00345363 -28.1283 -4.66774 -4.65362 -8.46595 0.005899 0.00292226 -0.0290421 -3.52011 
35 -0.0015461 -0.00342597 -25.5628 -4.80374 -4.78992 -8.71433 0.0049309 0.00163063 -0.0296765 -3.51903 
36 -0.00177702 -0.00336108 -23.0001 -4.90787 -4.89481 -8.91987 0.00420354 -0.000162251 -0.030643 -3.51811 
37 -0.00204289 -0.0032681 -20.4397 -4.98605 -4.97398 -9.08495 0.00370151 -0.00201702 -0.0318186 -3.51737 
38 -0.00232569 -0.0031541 -17.8812 -5.04406 -5.03304 -9.21461 0.00335674 -0.00362403 -0.0330784 -3.51678 
39 -0.00260718 -0.00302506 -15.3243 -5.0868 -5.07674 -9.31459 0.0030862 -0.00489333 -0.0343204 -3.51632 
40 -0.00287309 -0.00288624 -12.7685 -5.1181 -5.10882 -9.39031 0.00282446 -0.00594825 -0.035461 -3.51597 
41 -0.00311562 -0.00274129 -10.2137 -5.14082 -5.13208 -9.44647 0.00253752 -0.00703115 -0.0364145 -3.5157 
42 -0.00333404 -0.0025906 -7.65946 -5.15702 -5.1486 -9.48694 0.00221534 -0.00836464 -0.037084 -3.51552 
43 -0.00353369 -0.00242995 -5.10573 -5.16816 -5.15985 -9.51468 0.00185139 -0.0100212 -0.0373808 -3.51538 
44 -0.00372397 -0.00225074 -2.5523 -5.17512 -5.16677 -9.53178 0.00142211 -0.0118423 -0.0372674 -3.5153 
45 0.0922826 2.15814 1.27649 -4.05327 -5.13715 -3.83745 -0.0507928 -0.449855 -0.000608282 -3.52907 
46 0.0657534 2.1594 3.82965 -4.04837 -5.13685 -3.83126 -0.0396388 -0.449852 -0.0100508 -3.52909 
47 0.0392243 2.16035 6.38296 -4.04435 -5.13436 -3.8167 -0.0284633 -0.448547 -0.0199097 -3.52911 
48 0.0127351 2.16098 8.93657 -4.0418 -5.12944 -3.79257 -0.0170655 -0.445972 -0.0304172 -3.52914 
49 -0.0136701 2.16128 11.4907 -4.04155 -5.12166 -3.7573 -0.00529486 -0.442456 -0.0417425 -3.52918 
50 -0.0399512 2.16121 14.0454 -4.0444 -5.11023 -3.70885 0.00683401 -0.438512 -0.0540599 -3.52922 
51 -0.0660782 2.16077 16.6011 -4.05073 -5.09388 -3.64462 0.0190825 -0.434672 -0.0676166 -3.52928 
52 -0.0920353 2.15995 19.1581 -4.06018 -5.07064 -3.5613 0.0309974 -0.431337 -0.0827469 -3.52934 
53 -0.117821 2.15877 21.7166 -4.07129 -5.03756 -3.45478 0.0419647 -0.428712 -0.0997957 -3.52942 
54 -0.143446 2.15723 24.277 -4.0809 -4.99036 -3.32044 0.0512856 -0.426791 -0.118904 -3.52953 
55 -0.168928 2.15538 26.8398 -4.08331 -4.92306 -3.15387 0.0582816 -0.425398 -0.139602 -3.52967 
56 -0.194288 2.15327 29.4054 -4.0692 -4.82794 -2.95257 0.062468 -0.424229 -0.160251 -3.52986 
57 -0.219538 2.151 31.9742 -4.02538 -4.6969 -2.71861 0.0638386 -0.422888 -0.177732 -3.53012 
58 -0.244675 2.14866 34.5463 -3.93816 -4.52554 -2.4609 0.0631802 -0.420901 -0.188575 -3.53046 
59 -0.269668 2.14629 37.1216 -3.80207 -4.31926 -2.19364 0.0620344 -0.417728 -0.192523 -3.53087 
60 -0.294471 2.14381 39.6996 -3.62548 -4.09272 -1.92823 0.0619529 -0.412952 -0.194638 -3.53128 
61 -0.319054 2.14113 42.2798 -3.42039 -3.85664 -1.66492 0.0636367 -0.406716 -0.201051 -3.53164 
62 -0.343449 2.13816 44.8621 -3.19341 -3.60784 -1.3922 0.066325 -0.399603 -0.218421 -3.53193 
63 -0.367813 2.13511 47.4464 -2.91507 -3.29627 -1.10671 0.0667103 -0.393941 -0.238767 -3.53223 
64 -0.392512 2.13371 50.032 -2.4325 -2.80151 -0.493673 0.0610078 -0.413265 -0.20542 -3.53324 
65 -0.418483 2.1304 52.6263 -1.76578 -2.00552 -0.561413 0.0454973 -0.308948 -0.729959 -3.52457 
66 -0.44812 2.14653 55.1778 6.97659 7.73843 2.4309 0.0330159 -0.597321 1.77022 -3.02528 
67 0.649859 2.05055 -55.162 1.38944 0.842386 -0.678373 -0.188253 -0.0991977 1.20761 -3.26036 
68 0.633027 2.08274 -52.6122 -1.11197 -2.2187 -0.457712 -0.37449 -0.489289 -0.161415 -3.53566 
69 0.607028 2.08678 -50.0319 -2.00559 -2.55583 -0.875707 -0.169304 -0.429868 0.0761706 -3.53397 
70 0.581258 2.08803 -47.4533 -2.63797 -3.07254 -1.21021 -0.124958 -0.403613 0.147171 -3.5329 
71 0.556407 2.09137 -44.8713 -3.05979 -3.44218 -1.3684 -0.103402 -0.397865 0.191778 -3.53225 
72 0.531759 2.09553 -42.2894 -3.35916 -3.7277 -1.59672 -0.0941107 -0.401554 0.204023 -3.53182 
73 0.507012 2.09995 -39.7087 -3.60326 -3.98361 -1.84693 -0.0924371 -0.406985 0.210426 -3.53141 
74 0.482067 2.1045 -37.13 -3.80593 -4.22149 -2.11013 -0.0965289 -0.412108 0.214294 -3.53097 
75 0.456915 2.10915 -34.5539 -3.96395 -4.43625 -2.37916 -0.104715 -0.416542 0.213322 -3.53055 
76 0.431581 2.11392 -31.9807 -4.07297 -4.6181 -2.64195 -0.114662 -0.420562 0.204821 -3.53017 
77 0.406091 2.11875 -29.4109 -4.13626 -4.76183 -2.88485 -0.123837 -0.424412 0.188795 -3.52988 
78 0.380455 2.12353 -26.8443 -4.16416 -4.86956 -3.09786 -0.13037 -0.428065 0.167846 -3.52965 
79 0.354682 2.12816 -24.2806 -4.1686 -4.94767 -3.27677 -0.133426 -0.431366 0.14505 -3.52948 
80 0.328781 2.13257 -21.7194 -4.15952 -5.0034 -3.42218 -0.132986 -0.434188 0.12268 -3.52936 
81 0.302769 2.13671 -19.1603 -4.14398 -5.043 -3.53745 -0.129477 -0.436501 0.101988 -3.52928 
82 0.276667 2.14053 -16.6029 -4.12654 -5.0713 -3.62701 -0.123471 -0.43839 0.0834542 -3.52921 
83 0.250492 2.14403 -14.0467 -4.10983 -5.09175 -3.69536 -0.115533 -0.440024 0.0670962 -3.52917 
84 0.224257 2.1472 -11.4916 -4.09519 -5.10672 -3.74652 -0.106157 -0.44161 0.0527082 -3.52913 
85 0.19797 2.15003 -8.93721 -4.08304 -5.11777 -3.78386 -0.0957713 -0.443313 0.040002 -3.52911 
86 0.171629 2.15254 -6.38337 -4.07325 -5.12591 -3.81004 -0.0847515 -0.445186 0.0286652 -3.52909 
87 0.145233 2.15471 -3.8299 -4.06537 -5.13169 -3.82701 -0.073427 -0.447114 0.018365 -3.52908 
88 0.118782 2.15658 -1.27665 -4.05887 -5.13542 -3.83598 -0.0620575 -0.448807 0.00873711 -3.52907 
89 0.215204 4.32479 -0.000783172 -3.39187 -4.74248 -3.30012 -0.0732734 -0.929171 0.0362732 -3.53365 
90 0.285144 6.49731 1.27498 -2.77272 -4.34457 -2.86323 -0.0786285 -1.35623 0.0484244 -3.53382 
91 2.20498 2.73569 -5.72597e-05 -3.38883 -3.54403 -3.0508 -0.416099 -0.328405 0.246082 -3.52984 
92 2.17129 2.76248 2.55306 -3.37443 -3.55327 -3.04959 -0.416041 -0.334438 0.238162 -3.52984 
93 2.29122 4.92709 1.2753 -2.72479 -3.57059 -2.73018 -0.345789 -0.802791 0.0116668 -3.53336 
94 4.28792 3.33571 1.27703 -3.39943 -2.89793 -2.7267 -0.498209 -0.212095 0.758701 -3.53336 
95 0.162255 4.32735 2.55215 -3.38279 -4.7438 -3.29734 -0.0589651 -0.929416 0.0179438 -3.53366 
96 0.109302 4.32924 5.10517 -3.37643 -4.74496 -3.28824 -0.0443203 -0.928174 -0.00074748 -3.53367 
97 0.205737 6.50048 3.82764 -2.76285 -4.34718 -2.85786 -0.0610206 -1.3553 0.0222563 -3.53383 
98 2.23083 4.95466 3.82833 -2.71064 -3.57982 -2.72606 -0.336315 -0.804442 -0.00442811 -3.53336 
99 0.126402 6.50261 6.38046 -2.75818 -4.35128 -2.8476 -0.0427174 -1.35329 -0.00452958 -3.53384 
100 4.24678 3.38762 3.83009 -3.38356 -2.91171 -2.7215 -0.504601 -0.226701 0.752216 -3.53336 
101 2.13725 2.7888 5.10628 -3.36093 -3.56388 -3.04167 -0.414462 -0.339842 0.230238 -3.52984 
102 2.1029 2.81463 7.65975 -3.34886 -3.57607 -3.02624 -0.410895 -0.344745 0.222134 -3.52983 
103 2.17013 4.98137 6.38152 -2.6996 -3.59082 -2.71551 -0.324759 -0.805319 -0.0207425 -3.53336 
104 4.20497 3.43891 6.38333 -3.36949 -2.92839 -2.71007 -0.508691 -0.241032 0.745477 -3.53336 
105 0.0564133 4.33046 7.6584 -3.3741 -4.74606 -3.27217 -0.0291018 -0.925644 -0.0201824 -3.53368 
106 0.003656 4.33099 10.212 -3.37736 -4.74712 -3.2482 -0.0131971 -0.922345 -0.0407253 -3.53369 
107 0.0472263 6.50368 8.93355 -2.76051 -4.35711 -2.83197 -0.0237327 -1.35083 -0.0324497 -3.53383 
108 2.10917 5.00719 8.93502 -2.69291 -3.60368 -2.69774 -0.31083 -0.805826 -0.0377169 -3.53336 
109 -0.0317223 6.50367 11.4871 -2.77124 -4.36478 -2.81025 -0.00426595 -1.34866 -0.0620744 -3.53382 
110 4.16253 3.48955 8.93688 -3.35792 -2.94817 -2.69158 -0.510034 -0.255451 0.738283 -3.53336 
111 2.06827 2.83994 10.2136 -3.33901 -3.58992 -3.00205 -0.404874 -0.34946 0.213614 -3.52983 
112 2.0334 2.86471 12.768 -3.3322 -3.60522 -2.96745 -0.396048 -0.354479 0.204345 -3.52982 
113 2.04801 5.03209 11.489 -2.69182 -3.61827 -2.67164 -0.294388 -0.806566 -0.0559303 -3.53336 
114 4.11948 3.53952 11.4909 -3.34962 -2.97118 -2.66486 -0.508234 -0.270469 0.730362 -3.53336 
115 -0.0489149 4.33079 12.7662 -3.38752 -4.74794 -3.21509 0.00330052 -0.918921 -0.0627861 -3.5337 
116 -0.101263 4.32986 15.3211 -3.40542 -4.74799 -3.17107 0.0200857 -0.915925 -0.086869 -3.5337 
117 -0.110401 6.50256 14.0412 -2.79118 -4.37423 -2.7813 0.0153385 -1.34737 -0.0940664 -3.53379 
118 1.98669 5.05604 14.0436 -2.69729 -3.63423 -2.63576 -0.275444 -0.808234 -0.0761038 -3.53336 
119 -0.188793 6.50033 16.5961 -2.82052 -4.38506 -2.74337 0.0346608 -1.34728 -0.129185 -3.53375 
120 4.07586 3.58878 14.0455 -3.34525 -2.99735 -2.62834 -0.502968 -0.286742 0.72131 -3.53336 
121 1.99832 2.88891 15.3233 -3.32905 -3.6214 -2.92036 -0.384213 -0.360424 0.193864 -3.5298 
122 1.96305 2.91251 17.8795 -3.32971 -3.63749 -2.85821 -0.369298 -0.367958 0.181599 -3.52978 
123 1.92523 5.07901 16.5991 -2.70983 -3.65092 -2.58822 -0.254105 -0.811507 -0.0990664 -3.53335 
124 4.03167 3.63729 16.601 -3.34517 -3.02639 -2.58002 -0.49398 -0.305031 0.710564 -3.53335 
125 -0.15337 4.32819 17.8771 -3.43121 -4.74622 -3.11369 0.0366912 -0.913684 -0.113568 -3.5337 
126 -0.205236 4.32579 20.4343 -3.46429 -4.74087 -3.03965 0.0525534 -0.912244 -0.143487 -3.53369 
127 -0.266893 6.49697 19.1521 -2.85894 -4.39635 -2.69391 0.0532752 -1.34836 -0.168232 -3.5337 
128 1.86362 5.10099 19.1557 -2.72944 -3.66729 -2.52657 -0.230518 -0.816969 -0.125679 -3.53333 
129 -0.344708 6.4925 21.7094 -2.90555 -4.4064 -2.62936 0.0707979 -1.35023 -0.211905 -3.53363 
130 3.98691 3.68502 19.1576 -3.3493 -3.05773 -2.51747 -0.481052 -0.326138 0.697411 -3.53334 
131 1.92757 2.93551 20.4371 -3.33362 -3.65193 -2.77788 -0.351322 -0.377688 0.16692 -3.52975 
132 1.89189 2.95789 22.9964 -3.33915 -3.66229 -2.67574 -0.330397 -0.390049 0.149275 -3.52972 
133 1.80186 5.12193 21.7137 -2.75548 -3.68173 -2.44777 -0.204849 -0.82507 -0.156691 -3.53331 
134 3.94159 3.73194 21.7156 -3.35694 -3.09021 -2.43779 -0.46403 -0.350803 0.681054 -3.53332 
135 -0.256869 4.32266 22.9932 -3.50297 -4.72905 -2.94477 0.0670606 -0.911407 -0.177032 -3.53369 
136 -0.308285 4.31887 25.5541 -3.5439 -4.70624 -2.82411 0.079571 -0.91082 -0.214022 -3.53369 
137 -0.42224 6.48696 24.2683 -2.95862 -4.41224 -2.54504 0.0868964 -1.35229 -0.260489 -3.53356 
138 1.73995 5.14186 24.2735 -2.78629 -3.69169 -2.34827 -0.177358 -0.83607 -0.192474 -3.53327 
139 -0.499491 6.48042 26.8293 -3.01476 -4.40887 -2.43517 0.101242 -1.3538 -0.31331 -3.5335 
140 3.89569 3.77803 24.2754 -3.36636 -3.12178 -2.33772 -0.44293 -0.379509 0.660772 -3.53328 
141 1.85602 2.97967 25.5578 -3.34301 -3.66473 -2.54795 -0.306823 -0.405088 0.128468 -3.52967 
142 1.81998 3.00088 28.1217 -3.33931 -3.65328 -2.39113 -0.281315 -0.422079 0.105164 -3.52962 
143 1.6779 5.1608 26.8355 -2.81859 -3.69319 -2.22436 -0.148588 -0.849889 -0.232538 -3.53322 
144 3.84927 3.82328 26.8373 -3.37424 -3.14878 -2.21384 -0.418181 -0.412098 0.636273 -3.53323 
145 -0.359503 4.31449 28.1175 -3.58084 -4.66564 -2.67273 0.0894248 -0.910092 -0.25306 -3.53372 
146 -0.410538 4.30968 30.6838 -3.60307 -4.59773 -2.48729 0.0960302 -0.908844 -0.290843 -3.5338 
147 -0.576461 6.47304 29.3927 -3.06758 -4.38837 -2.2936 0.113396 -1.3541 -0.367937 -3.53347 
148 1.61573 5.17886 29.4001 -2.84624 -3.68012 -2.07288 -0.119692 -0.86573 -0.274766 -3.53317 
149 -0.653149 6.46512 31.9592 -3.10577 -4.33892 -2.11553 0.12268 -1.35272 -0.41943 -3.53349 
150 3.8024 3.86776 29.4017 -3.37458 -3.16496 -2.06304 -0.390976 -0.447084 0.608323 -3.53317 
151 1.78383 3.02164 30.6885 -3.31842 -3.61917 -2.20375 -0.255323 -0.438967 0.0816169 -3.52957 
152 1.7477 3.04211 33.2586 -3.26681 -3.55128 -1.98792 -0.231202 -0.452112 0.062056 -3.52955 
153 1.55353 5.19626 31.9676 -2.85854 -3.64348 -1.89229 -0.0927563 -0.881384 -0.314546 -3.53311 
154 3.75526 3.91159 31.9692 -3.35728 -3.16033 -1.88344 -0.363585 -0.480818 0.579599 -3.53311 
155 -0.461392 4.30466 33.2534 -3.59458 -4.49117 -2.26892 0.0991429 -0.906567 -0.322199 -3.53396 
156 -0.51203 4.29963 35.8265 -3.53746 -4.33709 -2.0263 0.0993356 -0.902337 -0.342571 -3.53423 
157 -0.729539 6.45701 34.5292 -3.11159 -4.24507 -1.90126 0.128266 -1.34914 -0.460719 -3.53362 
158 1.49147 5.21336 34.5386 -2.83922 -3.57125 -1.6843 -0.0707023 -0.892573 -0.344851 -3.53308 
159 -0.805562 6.44911 37.1028 -3.06365 -4.09218 -1.66094 0.129846 -1.34206 -0.486111 -3.53388 
160 3.70815 3.95503 34.5399 -3.30709 -3.12094 -1.67618 -0.339166 -0.507402 0.555095 -3.53307 
161 1.71179 3.06249 35.8321 -3.17037 -3.43959 -1.75082 -0.211593 -0.457581 0.0510339 -3.52961 
162 1.67622 3.08289 38.4086 -3.02344 -3.28232 -1.50321 -0.197597 -0.454934 0.0482022 -3.52977 
163 1.42978 5.23055 37.1128 -2.76923 -3.45068 -1.45577 -0.0561839 -0.893993 -0.359708 -3.53313 
164 3.66146 3.99834 37.1141 -3.20578 -3.0325 -1.44789 -0.320496 -0.52138 0.540001 -3.53313 
165 -0.562367 4.29465 38.4027 -3.42273 -4.13783 -1.77458 0.0982792 -0.894955 -0.35346 -3.53458 
166 -0.61231 4.28957 40.9816 -3.25791 -3.90946 -1.52614 0.0981963 -0.883879 -0.363841 -3.53492 
167 -0.881089 6.4415 39.6796 -2.95026 -3.87989 -1.41446 0.128671 -1.32974 -0.498679 -3.53425 
168 1.36871 5.24801 39.6902 -2.63797 -3.27712 -1.21854 -0.0495712 -0.884348 -0.36235 -3.5333 
169 -0.95601 6.43389 42.2588 -2.77981 -3.62831 -1.17954 0.127442 -1.31213 -0.511189 -3.53461 
170 3.61541 4.04169 39.6913 -3.04308 -2.88997 -1.21092 -0.307965 -0.523931 0.532947 -3.53329 
171 1.64102 3.10324 40.9876 -2.83439 -3.08838 -1.2528 -0.187527 -0.449397 0.0455822 -3.53 
172 1.60609 3.12338 43.5688 -2.61322 -2.86586 -0.99724 -0.178863 -0.447509 0.0348664 -3.53027 
173 1.3083 5.26559 42.2698 -2.45191 -3.05972 -0.982711 -0.048048 -0.870126 -0.367181 -3.53355 
174 3.56997 4.08498 42.2709 -2.8264 -2.70181 -0.977019 -0.299387 -0.524851 0.523086 -3.53354 
175 -0.661842 4.28417 43.5623 -3.05425 -3.66241 -1.28047 0.100239 -0.869948 -0.382107 -3.53523 
176 -0.711127 4.27844 46.1446 -2.82379 -3.39473 -1.0176 0.103596 -0.85532 -0.413695 -3.53549 
177 -1.03039 6.42607 44.8394 -2.55938 -3.34446 -0.96287 0.127529 -1.29154 -0.528901 -3.53496 
178 1.24842 5.28313 44.851 -2.21832 -2.80329 -0.749888 -0.0498783 -0.859801 -0.38572 -3.53386 
179 -1.10458 6.41838 47.4203 -2.296 -3.01705 -0.776403 0.129764 -1.27252 -0.542041 -3.53528 
180 3.52493 4.12813 44.852 -2.56111 -2.47543 -0.752004 -0.292108 -0.533045 0.501833 -3.53383 
181 1.57124 3.14329 46.1516 -2.36458 -2.6174 -0.719059 -0.171224 -0.456862 0.00766518 -3.53054 
182 1.53633 3.16338 48.7364 -2.08955 -2.36151 -0.347732 -0.183221 -0.479891 -0.0323107 -3.53015 
183 1.1886 5.30066 47.4331 -1.94357 -2.50521 -0.518773 -0.0633738 -0.86614 -0.430859 -3.53412 
184 3.48001 4.17121 47.4338 -2.24097 -2.22055 -0.54395 -0.286167 -0.559268 0.457736 -3.53404 
185 -0.760666 4.2734 48.7285 -2.603 -3.07462 -0.669955 0.0971281 -0.846667 -0.419521 -3.53516 
186 -0.811621 4.26877 51.3169 -1.98842 -2.35106 0.311829 0.0838902 -0.841935 -0.653073 -3.53805 
187 -1.17889 6.41384 50.0002 -2.0573 -2.54162 -0.333473 0.086755 -1.27782 -0.619779 -3.53573 
188 1.12775 5.31799 50.0156 -1.56925 -2.07903 -0.0212331 -0.110549 -0.945566 -0.597552 -3.53484 
189 -1.25707 6.40546 52.5877 -1.61241 -2.48693 0.643233 0.175791 -1.31624 -0.613062 -3.53282 
190 3.43505 4.21346 50.0156 -1.75905 -1.85302 -0.0391654 -0.309458 -0.668743 0.311601 -3.5349 
191 1.50027 3.18358 51.3264 -1.43163 -1.70133 0.657898 -0.17263 -0.548529 -0.133058 -3.53273 
192 1.46587 3.20964 53.9052 0.0267036 0.953993 -0.795873 0.566308 -0.560981 0.138975 -3.37565 
193 1.06597 5.33731 52.6041 -1.2492 -1.89859 0.441468 -0.236981 -0.801317 -0.410795 -3.52779 
194 3.38747 4.26008 52.6041 -1.41016 -1.71362 0.389807 -0.390661 -0.639427 0.587365 -3.52746 
195 -0.866323 4.2769 53.8949 -0.0508661 -0.206131 -1.18047 0.0793763 -1.26166 1.02744 -3.38132 
196 1.3298 4.1174 -56.3442 5.06942 2.90559 1.60242 -1.25473 -0.273892 0.110264 -2.79034 
197 -1.33605 6.40133 55.1665 4.18005 2.79746 1.28996 0.319921 -1.5232 0.197879 -3.26107 
198 1.00488 5.36129 55.1754 5.64209 6.63186 2.70774 0.369864 -0.636458 -0.032616 -3.15047 
199 1.98371 6.26223 -55.1334 6.93988 9.11552 2.92915 0.134187 -0.847907 -0.525664 -3.02309 
200 3.34328 4.30996 55.1754 5.53065 7.35768 2.86911 0.118703 -0.278625 0.562636 -3.15115 
201 2.87095 2.09325 -56.362 4.04253 6.0065 1.88101 -3.16453 0.252645 0.341791 -2.79939 
202 2.84551 2.1252 -53.8874 0.16501 0.763294 -3.02648 -0.982108 -0.732813 -0.162364 -3.51266 
203 3.53831 4.21674 -55.1525 6.03166 6.27391 1.75936 0.302437 -1.21951 -0.0444737 -3.1433 
204 5.07312 2.13635 -55.1525 6.04997 7.03886 2.00315 0.446065 -0.52812 0.0805364 -3.14511 
205 1.29262 4.16451 -53.8815 0.861257 -0.348251 -3.67507 -0.408877 -0.573879 0.839 -3.51412 
206 1.24176 4.17585 -51.3147 -1.287 -1.91113 -0.376318 -0.214921 -0.880489 0.22062 -3.53903 
207 1.90264 6.26187 -52.5941 -0.91789 -1.45675 -0.572977 -0.184162 -1.16801 0.820118 -3.52792 
208 3.4607 4.22944 -52.6036 -0.748895 -0.925839 0.0954379 -0.677506 -0.496044 0.191391 -3.53019 
209 1.82403 6.27282 -50.0101 -1.64508 -2.32857 -0.267897 -0.19969 -1.28157 0.428746 -3.53672 
210 5.01221 2.17771 -52.6036 -1.34186 -0.348577 0.0546075 -0.502557 0.0192204 0.991512 -3.52952 
211 2.80522 2.14769 -51.32 -1.10369 -0.946879 -0.112893 -0.278139 -0.333082 0.262133 -3.53414 
212 2.77225 2.17449 -48.7405 -1.9701 -1.83805 -0.546709 -0.291026 -0.226643 0.33273 -3.53088 
213 3.40036 4.25787 -50.02 -1.43197 -1.65429 -0.140354 -0.408607 -0.709653 0.283901 -3.53497 
214 4.971 2.23184 -50.02 -1.84404 -1.27431 -0.114086 -0.296523 0.0199882 0.833995 -3.53501 
215 1.18964 4.18027 -48.7356 -2.179 -2.75905 -0.79132 -0.179862 -0.850144 0.27594 -3.5364 
216 1.13967 4.18607 -46.1541 -2.63776 -3.19335 -0.977552 -0.162821 -0.833458 0.396006 -3.53604 
217 1.74857 6.27835 -47.4306 -2.10121 -2.83575 -0.679833 -0.21263 -1.24113 0.539976 -3.53588 
218 3.345 4.28726 -47.4411 -1.89916 -2.21018 -0.564006 -0.300444 -0.640675 0.331558 -3.53414 
219 1.67461 6.28991 -44.8496 -2.47063 -3.19285 -0.866092 -0.198758 -1.2444 0.599471 -3.53534 
220 4.93479 2.28427 -47.4403 -2.32287 -1.78988 -0.541747 -0.211445 0.103657 0.86187 -3.5342 
221 2.74191 2.20156 -46.1594 -2.36525 -2.27004 -0.739462 -0.230172 -0.163431 0.388494 -3.53074 
222 2.71348 2.23002 -43.5776 -2.67771 -2.59334 -0.950022 -0.213448 -0.15155 0.409211 -3.53037 
223 3.29145 4.31926 -44.8605 -2.23473 -2.57536 -0.718611 -0.259115 -0.626067 0.367421 -3.53392 
224 4.90184 2.33718 -44.8595 -2.65788 -2.14518 -0.722751 -0.176487 0.14157 0.893545 -3.53393 
225 1.09047 4.1944 -43.5722 -2.9768 -3.5133 -1.20454 -0.149555 -0.841231 0.422072 -3.53553 
226 1.04118 4.20349 -40.9911 -3.23698 -3.78851 -1.44519 -0.146938 -0.854297 0.428953 -3.53509 
227 1.60084 6.30323 -42.2685 -2.75337 -3.49912 -1.09223 -0.197657 -1.26212 0.615578 -3.53484 
228 3.23882 4.35276 -42.2796 -2.50837 -2.87214 -0.917779 -0.241573 -0.628154 0.385414 -3.5336 
229 1.52661 6.31726 -39.6887 -2.96446 -3.76639 -1.33555 -0.204324 -1.28134 0.6195 -3.53439 
230 4.87041 2.391 -42.2786 -2.94125 -2.42801 -0.92786 -0.165274 0.153576 0.918901 -3.5336 
231 2.68561 2.25926 -40.9965 -2.93395 -2.85518 -1.1796 -0.210382 -0.149393 0.423351 -3.53006 
232 2.65783 2.28912 -38.4169 -3.14775 -3.0704 -1.42136 -0.214952 -0.148613 0.434957 -3.52981 
233 3.18643 4.38735 -39.6996 -2.72593 -3.11247 -1.14097 -0.235824 -0.633044 0.395995 -3.53333 
234 4.83958 2.44583 -39.6987 -3.1783 -2.64639 -1.15117 -0.16555 0.158456 0.940755 -3.53333 
235 0.991505 4.21288 -38.4116 -3.43685 -4.03295 -1.69588 -0.15179 -0.866806 0.43025 -3.53468 
236 0.941399 4.22252 -35.8346 -3.57805 -4.24332 -1.95122 -0.161195 -0.876973 0.425061 -3.53431 
237 1.45174 6.33184 -37.1111 -3.10692 -3.99006 -1.58735 -0.21495 -1.29738 0.614586 -3.53398 
238 3.13402 4.42292 -37.1217 -2.88765 -3.29634 -1.3744 -0.238981 -0.639532 0.39832 -3.53315 
239 1.37629 6.34695 -34.5366 -3.18167 -4.15903 -1.83386 -0.225243 -1.30974 0.595907 -3.53367 
240 4.80904 2.50165 -37.1207 -3.36596 -2.80317 -1.38344 -0.175553 0.158103 0.954768 -3.53315 
241 2.63006 2.31956 -35.8395 -3.31803 -3.23943 -1.6675 -0.226566 -0.150605 0.440819 -3.52964 
242 2.60226 2.35051 -33.2651 -3.44024 -3.36015 -1.90765 -0.245004 -0.158697 0.437094 -3.52955 
243 3.0815 4.45933 -34.5466 -2.99134 -3.42245 -1.60441 -0.250347 -0.650848 0.387174 -3.53306 
244 4.77872 2.55834 -34.5455 -3.49894 -2.90039 -1.61264 -0.195409 0.147576 0.955916 -3.53306 
245 0.890926 4.2324 -33.2606 -3.66002 -4.41066 -2.19978 -0.171762 -0.885029 0.409329 -3.53401 
246 0.840159 4.24244 -30.69 -3.69022 -4.53222 -2.42799 -0.180473 -0.89178 0.382009 -3.5338 
247 1.30038 6.36247 -31.9656 -3.19874 -4.2713 -2.05881 -0.23213 -1.31948 0.561152 -3.53349 
248 3.02879 4.49632 -31.9747 -3.04176 -3.49803 -1.81832 -0.268231 -0.667924 0.361411 -3.53307 
249 1.22405 6.37804 -29.3982 -3.17601 -4.33656 -2.25117 -0.234557 -1.32714 0.513886 -3.53342 
250 4.74845 2.61563 -31.9735 -3.57968 -2.94746 -1.82655 -0.223556 0.124478 0.944089 -3.53306 
251 2.57435 2.38178 -30.6939 -3.51581 -3.4368 -2.13054 -0.268489 -0.173504 0.423572 -3.52954 
252 2.54619 2.41313 -28.126 -3.55325 -3.47989 -2.32777 -0.294091 -0.192613 0.403598 -3.52957 
253 2.97569 4.53345 -29.4062 -3.05136 -3.5371 -2.00783 -0.28964 -0.688311 0.325535 -3.53312 
254 4.71795 2.67318 -29.4049 -3.6186 -2.95967 -2.01653 -0.256615 0.0916352 0.923741 -3.5331 
255 0.789136 4.25242 -28.1227 -3.68333 -4.6139 -2.62622 -0.185529 -0.897635 0.34627 -3.53368 
256 0.737871 4.26212 -25.5585 -3.65453 -4.66543 -2.79098 -0.18637 -0.90259 0.306749 -3.53362 
257 1.14735 6.39328 -26.8339 -3.13102 -4.36856 -2.40765 -0.232685 -1.33276 0.460237 -3.53342 
258 2.92206 4.57035 -26.8408 -3.03432 -3.5534 -2.16959 -0.311324 -0.708944 0.285556 -3.53318 
259 1.07029 6.40786 -24.2724 -3.07701 -4.37967 -2.53058 -0.227002 -1.33652 0.405641 -3.53347 
260 4.6869 2.7307 -26.8393 -3.62811 -2.95168 -2.1786 -0.29095 0.0540099 0.899872 -3.53316 
261 2.51763 2.44436 -25.5612 -3.5636 -3.50101 -2.49539 -0.319062 -0.212994 0.381156 -3.52963 
262 2.48859 2.47533 -22.999 -3.55681 -3.50958 -2.63334 -0.341562 -0.232446 0.359112 -3.52968 
263 2.86779 4.60673 -24.2781 -3.0025 -3.55716 -2.30375 -0.330748 -0.727695 0.24602 -3.53323 
264 4.65509 2.788 -24.2766 -3.61898 -2.93442 -2.31249 -0.323888 0.0159529 0.876055 -3.53321 
265 0.686373 4.27136 -22.997 -3.61565 -4.6963 -2.92348 -0.183226 -0.906611 0.267277 -3.5336 
266 0.634659 4.28002 -20.4376 -3.57453 -4.71404 -3.02755 -0.176689 -0.909804 0.230183 -3.5336 
267 0.992886 6.42157 -21.7131 -3.02258 -4.37912 -2.62494 -0.218066 -1.33891 0.353614 -3.53353 
268 2.81284 4.64241 -21.7177 -2.96437 -3.55512 -2.41246 -0.346457 -0.743583 0.209444 -3.53327 
269 0.915184 6.43427 -19.1556 -2.9726 -4.37304 -2.69624 -0.206476 -1.34054 0.305859 -3.5336 
270 4.62239 2.84493 -21.7161 -3.59927 -2.91496 -2.42034 -0.353946 -0.0197702 0.854289 -3.53325 
271 2.45902 2.50594 -20.439 -3.54038 -3.51207 -2.74405 -0.360694 -0.249828 0.338994 -3.52972 
272 2.42893 2.53615 -17.8809 -3.51946 -3.51247 -2.83111 -0.376257 -0.264809 0.321349 -3.52975 
273 2.75721 4.67732 -19.1593 -2.92535 -3.5513 -2.49884 -0.357947 -0.756483 0.176792 -3.5333 
274 4.58875 2.90144 -19.1576 -3.57449 -2.89737 -2.50549 -0.380548 -0.0518791 0.835416 -3.53329 
275 0.58275 4.28802 -17.88 -3.53578 -4.72397 -3.10783 -0.16746 -0.912408 0.196495 -3.53361 
276 0.530668 4.29535 -15.3237 -3.50173 -4.72958 -3.16882 -0.15622 -0.914728 0.166388 -3.53362 
277 0.837207 6.44591 -16.5995 -2.92932 -4.36519 -2.7495 -0.192861 -1.34198 0.262821 -3.53366 
278 2.70093 4.7114 -16.6024 -2.88853 -3.54795 -2.56632 -0.365347 -0.766759 0.148091 -3.53332 
279 0.758982 6.45646 -14.0444 -2.89323 -4.35768 -2.78884 -0.177832 -1.34365 0.224227 -3.53371 
280 4.55417 2.95747 -16.6007 -3.54814 -2.88366 -2.5716 -0.403679 -0.0801328 0.819556 -3.53331 
281 2.39832 2.56594 -15.3243 -3.49727 -3.51301 -2.89839 -0.388458 -0.277557 0.306153 -3.52978 
282 2.36722 2.59529 -12.7688 -3.47565 -3.51475 -2.94949 -0.397716 -0.288478 0.293093 -3.5298 
283 2.64402 4.74465 -14.0466 -2.8554 -3.54614 -2.61821 -0.369127 -0.774982 0.122891 -3.53334 
284 4.51866 3.01301 -14.0449 -3.52224 -2.87453 -2.62213 -0.423626 -0.104886 0.806435 -3.53333 
285 0.478432 4.30198 -12.7685 -3.47317 -4.73299 -3.21444 -0.143568 -0.917056 0.139572 -3.53363 
286 0.426051 4.30791 -10.2141 -3.44991 -4.73541 -3.2479 -0.13001 -0.919592 0.115552 -3.53363 
287 0.680521 6.46591 -11.4902 -2.86373 -4.35153 -2.8175 -0.161927 -1.34581 0.189466 -3.53374 
288 2.58653 4.77708 -11.4918 -2.82635 -3.54622 -2.65742 -0.369899 -0.781731 0.100552 -3.53335 
289 0.601832 6.47429 -8.93654 -2.83958 -4.3471 -2.83789 -0.145569 -1.34846 0.15782 -3.53377 
290 4.48227 3.06806 -11.4901 -3.49783 -2.86993 -2.66005 -0.440811 -0.126755 0.795591 -3.53334 
291 2.33565 2.62422 -10.2141 -3.45546 -3.51803 -2.98755 -0.40453 -0.298034 0.281758 -3.52981 
292 2.30362 2.65272 -7.66007 -3.43692 -3.52279 -3.01508 -0.409404 -0.306613 0.27173 -3.52982 
293 2.52848 4.80868 -8.93767 -2.80109 -3.54814 -2.6864 -0.368281 -0.78746 0.0804187 -3.53335 
294 4.44501 3.12262 -8.93598 -3.47521 -2.8694 -2.68781 -0.455691 -0.146395 0.786509 -3.53335 
295 0.373531 4.31314 -7.6603 -3.43112 -4.73743 -3.27169 -0.115958 -0.922361 0.0937723 -3.53364 
296 0.320874 4.31769 -5.10689 -3.41577 -4.73927 -3.28763 -0.10172 -0.925169 0.0736673 -3.53364 
297 0.522922 6.48161 -6.38332 -2.81931 -4.34437 -2.85176 -0.129035 -1.35134 0.128562 -3.53379 
298 2.4699 4.83949 -6.38405 -2.77892 -3.5517 -2.70707 -0.364807 -0.792432 0.0619041 -3.53335 
299 0.443809 6.48787 -3.8304 -2.80167 -4.34316 -2.86025 -0.112429 -1.35397 0.101001 -3.5338 
300 4.40692 3.17667 -6.38236 -3.45431 -2.87235 -2.70726 -0.468675 -0.164378 0.778687 -3.53335 
301 2.27116 2.6808 -5.10649 -3.41986 -3.52882 -3.03401 -0.412781 -0.314476 0.262639 -3.52983 
302 2.23827 2.70846 -2.5532 -3.40393 -3.53592 -3.04567 -0.414973 -0.321738 0.254174 -3.52983 
303 2.4108 4.86949 -3.83076 -2.7591 -3.55666 -2.72079 -0.359844 -0.796707 0.0445219 -3.53336 
304 4.36802 3.23022 -3.82907 -3.43486 -2.87827 -2.71975 -0.48005 -0.181136 0.771679 -3.53336 
305 0.268091 4.32157 -2.55376 -3.40288 -4.74097 -3.29691 -0.0874823 -0.927609 0.0546808 -3.53365 
306 0.364529 6.49311 -1.27767 -2.78605 -4.34325 -2.864 -0.0956899 -1.35575 0.0744891 -3.53381 
307 2.35123 4.8987 -1.27769 -2.7411 -3.56293 -2.72839 -0.353537 -0.800201 0.0278832 -3.53336 
308 4.32835 3.28324 -1.27599 -3.41659 -2.88682 -2.7261 -0.489928 -0.196971 0.765114 -3.53336 
309 2.43623 7.09098 -0.00152949 -2.21619 -3.36012 -2.40117 -0.317229 -1.20569 -0.187857 -3.5329 
310 0.434481 8.66815 -0.00180018 -2.24776 -4.01606 -2.4964 -0.0993666 -1.74216 0.08323 -3.53357 