ITEM: TIMESTEP
0
ITEM: NUMBER OF ATOMS
37664
ITEM: BOX BOUNDS ff ff ff
-100 100
-100 100
-156.15 156.15
ITEM: ATOMS id x y z v_peratom_sxx v_peratom_syy v_peratom_szz v_peratom_sxy v_peratom_sxz v_peratom_syz c_atomPE 
1 -0.0034047 -0.00163307 -0.000375444 -5.18109 -5.16882 -9.54272 0.00036763 -0.00832817 -0.0466545 -3.51524 
2 -0.00363124 -0.00137351 2.55279 -5.1789 -5.16745 -9.53887 -0.000700292 -0.00684615 -0.0459526 -3.51526 
3 -0.00383886 -0.00109722 5.10607 -5.17235 -5.16205 -9.5249 -0.00185593 -0.00471649 -0.0450223 -3.51532 
4 -0.00402455 -0.000807196 7.65961 -5.1609 -5.15218 -9.49983 -0.00307744 -0.00182463 -0.0438512 -3.51544 
5 -0.00418193 -0.000508476 10.2136 -5.14379 -5.13708 -9.462 -0.0043081 0.00179923 -0.0423807 -3.51561 
6 -0.00430219 -0.00020713 12.7681 -5.11995 -5.11562 -9.40912 -0.00546864 0.00595943 -0.040536 -3.51586 
7 -0.00437618 9.08231e-05 15.3235 -5.08792 -5.08618 -9.33811 -0.00647934 0.0103391 -0.0382699 -3.51619 
8 -0.00439652 0.000379941 17.88 -5.04559 -5.04647 -9.24502 -0.00727965 0.0145836 -0.0355983 -3.51661 
9 -0.00435899 0.000655182 20.4379 -4.98998 -4.99335 -9.12492 -0.00783757 0.0183834 -0.0326131 -3.51716 
10 -0.0042627 0.000911278 22.9975 -4.91699 -4.92258 -8.97207 -0.00814949 0.0215289 -0.0294745 -3.51785 
11 -0.00410952 0.00114204 25.5594 -4.82125 -4.8287 -8.78059 -0.00823491 0.0239311 -0.0263892 -3.5187 
12 -0.00390288 0.0013399 28.1238 -4.6964 -4.70532 -8.54618 -0.00812965 0.025614 -0.0235808 -3.51973 
13 -0.00364658 0.00149592 30.6913 -4.53659 -4.54656 -8.26918 -0.00787826 0.026686 -0.0212537 -3.52092 
14 -0.00334384 0.00160012 33.262 -4.34025 -4.35086 -7.95831 -0.00752472 0.0273012 -0.0195583 -3.52221 
15 -0.00299655 0.00164182 35.8359 -4.11523 -4.12612 -7.63102 -0.00710309 0.0276231 -0.0185749 -3.52348 
16 -0.00260485 0.00160964 38.4126 -3.87757 -3.88842 -7.30567 -0.00663106 0.0277932 -0.0183197 -3.52458 
17 -0.00216648 0.00149067 40.9918 -3.63887 -3.64934 -6.98867 -0.00610516 0.0279156 -0.0187779 -3.52547 
18 -0.00167386 0.00126774 43.5732 -3.4001 -3.40985 -6.66725 -0.00548558 0.0281291 -0.019976 -3.52619 
19 -0.00110936 0.000914669 46.157 -3.13617 -3.14457 -6.30454 -0.0046327 0.0286047 -0.0219904 -3.52694 
20 -0.000453398 0.000391529 48.7436 -2.75369 -2.75839 -5.86498 -0.00261702 0.0286345 -0.0247349 -3.52781 
21 5.95933e-07 -4.11185e-08 51.3317 -1.9232 -1.92283 -4.92081 0.000199961 -0.00147447 0.00131193 -3.53204 
22 4.01304e-07 -1.42881e-06 53.9138 -0.851928 -0.851941 -8.91782 -1.30397e-06 -2.79981e-05 -7.29464e-05 -3.48169 
23 8.71386e-07 -1.98378e-06 56.3885 1.68558 1.68559 1.87686 -1.6457e-05 2.49997e-05 -3.56163e-07 -2.55581 
24 -1.23087e-07 -1.12453e-06 -53.8876 -2.60693 -2.60695 -6.54961 -1.46348e-05 6.88432e-06 -3.4341e-05 -3.40183 
25 1.02659e-07 -1.55837e-06 -51.3239 -2.07932 -2.07942 -5.58115 -0.000522875 0.000515242 0.00245003 -3.52873 
26 -0.000113251 -0.000691016 -48.7463 -2.69822 -2.69612 -6.15385 0.00688664 -0.00730951 -0.0432062 -3.52637 
27 -0.000232965 -0.00163906 -46.1647 -3.02584 -3.02199 -6.35538 0.012257 -0.00502203 -0.0396379 -3.52675 
28 -0.000294746 -0.00233506 -43.5824 -3.30739 -3.30177 -6.61606 0.0137522 -0.00141166 -0.0364798 -3.52631 
29 -0.000301873 -0.00283891 -41.0011 -3.56291 -3.55524 -6.90401 0.0141464 0.00183699 -0.0340694 -3.52571 
30 -0.000278895 -0.00319019 -38.4214 -3.81312 -3.80335 -7.21194 0.0138992 0.00433905 -0.0323023 -3.52488 
31 -0.000251145 -0.00341533 -35.8439 -4.05934 -4.04759 -7.536 0.0132136 0.00579777 -0.0311539 -3.52382 
32 -0.000242905 -0.00353569 -33.2691 -4.29228 -4.27883 -7.86525 0.012244 0.00599596 -0.0306966 -3.5226 
33 -0.000275508 -0.00357123 -30.6974 -4.49899 -4.48426 -8.18228 0.0111366 0.00489201 -0.0310067 -3.52131 
34 -0.000364625 -0.00354094 -28.1289 -4.67102 -4.65544 -8.47014 0.010018 0.00267486 -0.0320945 -3.52009 
35 -0.000517885 -0.00346191 -25.5635 -4.80736 -4.79136 -8.71835 0.0089743 -0.000259231 -0.0338652 -3.51901 
36 -0.000733896 -0.0033482 -23.0008 -4.912 -4.89593 -8.92394 0.00804052 -0.00340267 -0.0361168 -3.5181 
37 -0.0010031 -0.00321019 -20.4405 -4.99072 -4.97483 -9.08927 0.00720479 -0.00627098 -0.038585 -3.51735 
38 -0.00131041 -0.00305466 -17.882 -5.04923 -5.03369 -9.21934 0.00642632 -0.00851615 -0.0410034 -3.51676 
39 -0.00163864 -0.00288569 -15.3251 -5.09236 -5.07726 -9.31983 0.00565866 -0.00998439 -0.0431537 -3.51629 
40 -0.00197169 -0.00270548 -12.7694 -5.12389 -5.10925 -9.39609 0.00486847 -0.0107083 -0.0448911 -3.51594 
41 -0.00229678 -0.002515 -10.2147 -5.14663 -5.13244 -9.4527 0.00404234 -0.0108447 -0.0461445 -3.51567 
42 -0.00260538 -0.00231411 -7.66054 -5.16259 -5.14885 -9.4933 0.00318121 -0.0105857 -0.0469032 -3.51548 
43 -0.00289315 -0.00210157 -5.1069 -5.17316 -5.15985 -9.52069 0.00228799 -0.0100741 -0.0471992 -3.51535 
44 -0.00315919 -0.00187531 -2.55356 -5.17918 -5.16634 -9.53678 0.00135633 -0.00934826 -0.0470921 -3.51527 
45 0.0927314 2.15861 1.27494 -4.05283 -5.13332 -3.83751 -0.0521518 -0.443285 -0.00482101 -3.52909 
46 0.0662661 2.15985 3.8281 -4.04911 -5.13327 -3.82979 -0.0405737 -0.442708 -0.0142009 -3.5291 
47 0.0398245 2.16076 6.38144 -4.04699 -5.13126 -3.81374 -0.0288522 -0.441582 -0.0238081 -3.52912 
48 0.0134286 2.16134 8.93513 -4.04679 -5.12698 -3.78842 -0.0169601 -0.439968 -0.0338657 -3.52914 
49 -0.0128985 2.16158 11.4893 -4.04894 -5.11988 -3.75239 -0.00492315 -0.438034 -0.044614 -3.52918 
50 -0.0391356 2.16147 14.0442 -4.05378 -5.1091 -3.70364 0.00713125 -0.435986 -0.056351 -3.52922 
51 -0.0652659 2.16101 16.6001 -4.06131 -5.0933 -3.63948 0.0189548 -0.434009 -0.0694488 -3.52927 
52 -0.0912778 2.16019 19.1572 -4.07096 -5.07046 -3.55641 0.0301824 -0.432214 -0.0843241 -3.52933 
53 -0.117165 2.15903 21.7158 -4.08128 -5.03766 -3.45022 0.0403479 -0.430631 -0.10134 -3.52941 
54 -0.142927 2.15753 24.2763 -4.08929 -4.99066 -3.31616 0.0489102 -0.429205 -0.120597 -3.52952 
55 -0.168565 2.15572 26.8392 -4.08958 -4.9235 -3.1498 0.0553149 -0.427814 -0.141549 -3.52966 
56 -0.194082 2.15366 29.405 -4.07315 -4.82852 -2.94868 0.0591441 -0.426266 -0.162474 -3.52985 
57 -0.219476 2.15142 31.9738 -4.02713 -4.69761 -2.7149 0.060399 -0.424295 -0.180195 -3.53012 
58 -0.244729 2.1491 34.546 -3.93805 -4.52642 -2.45746 0.0598319 -0.421542 -0.191224 -3.53047 
59 -0.269805 2.14673 37.1213 -3.8006 -4.32031 -2.19053 0.0589312 -0.417564 -0.195327 -3.53088 
60 -0.294653 2.14424 39.6994 -3.62319 -4.09391 -1.92552 0.0591983 -0.412014 -0.197611 -3.53128 
61 -0.319244 2.14151 42.2797 -3.41781 -3.85788 -1.6626 0.0613031 -0.405081 -0.204271 -3.53165 
62 -0.343612 2.13847 44.862 -3.19108 -3.60893 -1.39011 0.0644914 -0.397342 -0.222055 -3.53193 
63 -0.367913 2.1353 47.4464 -2.91357 -3.29697 -1.10412 0.0655489 -0.390955 -0.243145 -3.53223 
64 -0.392512 2.13371 50.032 -2.43049 -2.80165 -0.491078 0.0607439 -0.411392 -0.208397 -3.53325 
65 -0.418483 2.1304 52.6263 -1.76578 -2.0055 -0.561391 0.0454874 -0.308963 -0.729938 -3.52457 
66 -0.44812 2.14653 55.1778 6.9766 7.73844 2.43089 0.0330182 -0.59732 1.77021 -3.02528 
67 0.649859 2.05055 -55.162 1.38945 0.842393 -0.678356 -0.188252 -0.0991968 1.20762 -3.26036 
68 0.633027 2.08274 -52.6122 -1.11202 -2.21873 -0.45774 -0.374497 -0.489288 -0.161402 -3.53567 
69 0.607028 2.08678 -50.0319 -2.00607 -2.55792 -0.879108 -0.166914 -0.427061 0.0745855 -3.53397 
70 0.58153 2.08791 -47.4534 -2.64101 -3.07409 -1.21626 -0.123052 -0.397711 0.144902 -3.5329 
71 0.556903 2.09117 -44.8715 -3.06327 -3.44365 -1.37465 -0.100272 -0.392563 0.190224 -3.53225 
72 0.532433 2.0953 -42.2896 -3.36311 -3.72914 -1.60314 -0.0902229 -0.396578 0.203063 -3.53182 
73 0.50783 2.09971 -39.7091 -3.60764 -3.98503 -1.85332 -0.0880481 -0.40243 0.209868 -3.5314 
74 0.482997 2.10427 -37.1305 -3.81069 -4.22279 -2.11628 -0.0918033 -0.408135 0.213921 -3.53096 
75 0.457924 2.10897 -34.5544 -3.96904 -4.43733 -2.38491 -0.099803 -0.413286 0.212923 -3.53054 
76 0.432642 2.11379 -31.9814 -4.07834 -4.61884 -2.64721 -0.109737 -0.418099 0.204203 -3.53016 
77 0.407175 2.11867 -29.4116 -4.14186 -4.76215 -2.8896 -0.119097 -0.422738 0.187798 -3.52987 
78 0.381539 2.12352 -26.8451 -4.16993 -4.86939 -3.10212 -0.126016 -0.4271 0.166346 -3.52964 
79 0.355741 2.12821 -24.2815 -4.17443 -4.94699 -3.28062 -0.129634 -0.430978 0.142975 -3.52948 
80 0.329795 2.13268 -21.7203 -4.16524 -5.0022 -3.4257 -0.129882 -0.434216 0.120019 -3.52936 
81 0.303716 2.13687 -19.1613 -4.14935 -5.0413 -3.54074 -0.127131 -0.436766 0.0987981 -3.52927 
82 0.277528 2.14074 -16.6039 -4.13125 -5.06915 -3.63021 -0.121909 -0.438679 0.0798525 -3.52921 
83 0.251255 2.14429 -14.0478 -4.1136 -5.08919 -3.69856 -0.114742 -0.440077 0.0632321 -3.52917 
84 0.224917 2.1475 -11.4928 -4.09779 -5.1038 -3.74977 -0.106098 -0.44111 0.0487207 -3.52913 
85 0.198532 2.15038 -8.93849 -4.08439 -5.11453 -3.78708 -0.096367 -0.441913 0.0359797 -3.52911 
86 0.172112 2.15292 -6.38473 -4.07347 -5.12238 -3.81303 -0.0858742 -0.44257 0.0246282 -3.5291 
87 0.145666 2.15514 -3.83134 -4.06479 -5.12794 -3.82941 -0.0748859 -0.443082 0.0142825 -3.52909 
88 0.119202 2.15704 -1.27816 -4.05801 -5.13154 -3.83739 -0.0636037 -0.443365 0.00457705 -3.52908 
89 0.215565 4.3253 -0.00238238 -3.38893 -4.7377 -3.29923 -0.0748071 -0.921605 0.0352327 -3.53368 
90 0.285579 6.49785 1.27342 -2.77196 -4.34038 -2.86143 -0.0794312 -1.34795 0.0493127 -3.53385 
91 2.20538 2.73612 -0.00137828 -3.38834 -3.53954 -3.05236 -0.418119 -0.324467 0.245616 -3.52984 
92 2.17175 2.76285 2.55173 -3.37493 -3.55015 -3.05005 -0.417151 -0.329904 0.238092 -3.52984 
93 2.29163 4.92752 1.27393 -2.7232 -3.56768 -2.73049 -0.346794 -0.796668 0.0135827 -3.53337 
94 4.28834 3.33607 1.27587 -3.39982 -2.8953 -2.72787 -0.49925 -0.208468 0.758365 -3.53337 
95 0.162752 4.32784 2.55055 -3.38283 -4.73973 -3.29554 -0.0598391 -0.921484 0.0169402 -3.53368 
96 0.109956 4.3297 5.10361 -3.38024 -4.74192 -3.28564 -0.0445158 -0.920796 -0.00160848 -3.53369 
97 0.206399 6.50098 3.82613 -2.76715 -4.34423 -2.85575 -0.0612939 -1.34783 0.0231695 -3.53385 
98 2.23138 4.95501 3.82697 -2.71206 -3.5782 -2.72537 -0.336293 -0.798383 -0.00222868 -3.53337 
99 0.127271 6.50305 6.37901 -2.76744 -4.34977 -2.84543 -0.0427138 -1.34751 -0.00355631 -3.53385 
100 4.24727 3.38789 3.82893 -3.38557 -2.91043 -2.7219 -0.504629 -0.22278 0.752279 -3.53337 
101 2.13779 2.78911 5.10496 -3.36307 -3.56225 -3.04094 -0.414524 -0.335155 0.230525 -3.52984 
102 2.10353 2.81487 7.65846 -3.35307 -3.57577 -3.02437 -0.410015 -0.340415 0.222685 -3.52983 
103 2.17081 4.98165 6.3802 -2.70443 -3.59037 -2.71395 -0.323909 -0.799976 -0.0184591 -3.53337 
104 4.20554 3.4391 6.38218 -3.3735 -2.92839 -2.70968 -0.507819 -0.237186 0.745955 -3.53336 
105 0.0572173 4.33086 7.65692 -3.38189 -4.74421 -3.26905 -0.0287961 -0.919685 -0.020795 -3.53369 
106 0.004571 4.33132 10.2106 -3.38858 -4.74644 -3.24491 -0.0127255 -0.91838 -0.0410357 -3.5337 
107 0.0482447 6.50405 8.9322 -2.7737 -4.35701 -2.82999 -0.0237857 -1.34729 -0.0313979 -3.53384 
108 2.10997 5.0074 8.93376 -2.70096 -3.60409 -2.69557 -0.309551 -0.801746 -0.0355709 -3.53337 
109 -0.0306408 6.50398 11.4858 -2.78673 -4.36588 -2.8086 -0.00469604 -1.3474 -0.0609623 -3.53381 
110 4.16316 3.4897 8.93576 -3.36397 -2.9492 -2.69049 -0.508567 -0.252062 0.739118 -3.53336 
111 2.06897 2.84013 10.2124 -3.34539 -3.59059 -2.99927 -0.403389 -0.345961 0.214286 -3.52982 
112 2.03414 2.86487 12.7669 -3.34044 -3.60641 -2.9641 -0.39443 -0.352156 0.204963 -3.52981 
113 2.04887 5.03226 11.4878 -2.70235 -3.61916 -2.6692 -0.293158 -0.804065 -0.0541248 -3.53336 
114 4.12015 3.53963 11.4898 -3.35743 -2.97287 -2.66323 -0.50659 -0.26786 0.731424 -3.53336 
115 -0.0479503 4.33107 12.7649 -3.40106 -4.74825 -3.21189 0.00354185 -0.917112 -0.0628213 -3.53369 
116 -0.10032 4.33011 15.32 -3.41985 -4.74902 -3.1681 0.0197526 -0.916045 -0.0867301 -3.53369 
117 -0.109352 6.50282 14.0401 -2.80713 -4.3762 -2.77998 0.0143057 -1.34804 -0.0929497 -3.53378 
118 1.98754 5.05619 14.0425 -2.70918 -3.63527 -2.63336 -0.274687 -0.80735 -0.0747866 -3.53335 
119 -0.187862 6.50056 16.5951 -2.83532 -4.38754 -2.74223 0.0329395 -1.34926 -0.128141 -3.53374 
120 4.07653 3.58888 14.0445 -3.35423 -2.99936 -2.62636 -0.50157 -0.285116 0.722427 -3.53335 
121 1.99906 2.88905 15.3222 -3.33849 -3.62272 -2.91683 -0.382941 -0.359424 0.194258 -3.5298 
122 1.96373 2.91267 17.8786 -3.33952 -3.63868 -2.85485 -0.368735 -0.368223 0.181633 -3.52977 
123 1.926 5.07916 16.5981 -2.72187 -3.65188 -2.58607 -0.254096 -0.812029 -0.0983081 -3.53334 
124 4.0323 3.6374 16.6001 -3.35457 -3.02849 -2.57792 -0.493156 -0.304443 0.711567 -3.53334 
125 -0.15252 4.32842 17.8761 -3.44512 -4.7477 -3.11092 0.0355768 -0.915231 -0.113399 -3.53368 
126 -0.204533 4.32603 20.4334 -3.47652 -4.74256 -3.03697 0.0506226 -0.914606 -0.143429 -3.53368 
127 -0.266146 6.4972 19.1511 -2.87146 -4.39902 -2.6927 0.0509209 -1.35096 -0.16734 -3.53368 
128 1.86426 5.10115 19.1548 -2.74055 -3.66811 -2.52477 -0.231338 -0.818519 -0.125468 -3.53332 
129 -0.344182 6.49274 21.7085 -2.9152 -4.40905 -2.62782 0.0679744 -1.35287 -0.21122 -3.53362 
130 3.98745 3.68516 19.1568 -3.35835 -3.05978 -2.51542 -0.480977 -0.326497 0.698168 -3.53333 
131 1.92817 2.9357 20.4363 -3.34292 -3.65289 -2.77492 -0.351648 -0.378991 0.166521 -3.52974 
132 1.89236 2.95812 22.9957 -3.3472 -3.66304 -2.67332 -0.331604 -0.392055 0.148447 -3.52971 
133 1.80234 5.12212 21.7129 -2.76484 -3.68244 -2.44632 -0.206409 -0.827205 -0.156946 -3.5333 
134 3.94201 3.73211 21.7149 -3.36498 -3.0922 -2.43593 -0.464716 -0.351907 0.68149 -3.5333 
135 -0.25635 4.32293 22.9924 -3.51276 -4.73078 -2.94199 0.0644326 -0.914003 -0.177189 -3.53367 
136 -0.307965 4.31917 25.5534 -3.5509 -4.70793 -2.8211 0.0764671 -0.913197 -0.21444 -3.53368 
137 -0.421946 6.48721 24.2675 -2.96526 -4.41473 -2.54297 0.0838246 -1.35455 -0.260031 -3.53355 
138 1.74025 5.14208 24.2728 -2.79346 -3.69239 -2.34709 -0.179452 -0.838368 -0.193064 -3.53326 
139 -0.499417 6.48069 26.8285 -3.01861 -4.41116 -2.4325 0.0981484 -1.35545 -0.313062 -3.53349 
140 3.89599 3.77823 24.2747 -3.37292 -3.12375 -2.33614 -0.444261 -0.381092 0.660883 -3.53327 
141 1.85635 2.97994 25.5572 -3.34931 -3.66536 -2.5461 -0.308757 -0.407428 0.12728 -3.52966 
142 1.82016 3.0012 28.1212 -3.3436 -3.65389 -2.38983 -0.28374 -0.424403 0.103732 -3.5296 
143 1.67802 5.16104 26.8349 -2.82343 -3.69396 -2.22336 -0.150966 -0.852005 -0.233309 -3.53322 
144 3.84942 3.82352 26.8367 -3.37906 -3.15077 -2.21257 -0.419965 -0.413875 0.636108 -3.53322 
145 -0.359375 4.31483 28.1169 -3.58506 -4.66724 -2.66943 0.086103 -0.911953 -0.253729 -3.53372 
146 -0.410581 4.31005 30.6833 -3.60478 -4.59925 -2.48375 0.0927283 -0.910025 -0.291717 -3.5338 
147 -0.576579 6.47334 29.3921 -3.06904 -4.39044 -2.29037 0.110473 -1.35504 -0.367857 -3.53346 
148 1.61569 5.17912 29.3995 -2.84886 -3.681 -2.07198 -0.12212 -0.867416 -0.27557 -3.53316 
149 -0.653418 6.46542 31.9587 -3.10528 -4.3408 -2.11193 0.120063 -1.35295 -0.419473 -3.53349 
150 3.80242 3.86802 29.4013 -3.3776 -3.167 -2.06209 -0.393004 -0.448796 0.60796 -3.53316 
151 1.78387 3.02198 30.6881 -3.32072 -3.61985 -2.20292 -0.257991 -0.440992 0.080071 -3.52956 
152 1.74763 3.04247 33.2583 -3.26733 -3.55206 -1.98747 -0.23389 -0.453643 0.0605074 -3.52954 
153 1.55336 5.19654 31.9672 -2.85922 -3.64448 -1.89143 -0.0950513 -0.882489 -0.315267 -3.5331 
154 3.75517 3.91188 31.9688 -3.35863 -3.16238 -1.88279 -0.365668 -0.482257 0.579119 -3.5331 
155 -0.461571 4.30504 33.253 -3.59421 -4.49264 -2.26529 0.096045 -0.906998 -0.323225 -3.53396 
156 -0.512302 4.30001 35.8261 -3.53555 -4.33853 -2.02273 0.0965628 -0.902007 -0.343722 -3.53423 
157 -0.729912 6.45733 34.5287 -3.10964 -4.24678 -1.89752 0.126032 -1.34868 -0.460866 -3.53362 
158 1.4912 5.21365 34.5382 -2.83836 -3.57233 -1.68346 -0.0727413 -0.89303 -0.345428 -3.53307 
159 -0.80599 6.44942 37.1024 -3.06076 -4.09377 -1.65726 0.128022 -1.34094 -0.486387 -3.53389 
160 3.70799 3.95532 34.5397 -3.30702 -3.12296 -1.67579 -0.341151 -0.508435 0.554552 -3.53307 
161 1.71163 3.06286 35.8318 -3.16949 -3.44048 -1.75068 -0.214129 -0.458521 0.0495463 -3.5296 
162 1.67602 3.08325 38.4084 -3.02161 -3.28329 -1.50328 -0.199857 -0.455284 0.0467741 -3.52977 
163 1.42946 5.23083 37.1126 -2.76727 -3.45178 -1.45493 -0.0578929 -0.893809 -0.360149 -3.53313 
164 3.66124 3.99863 37.1139 -3.20465 -3.03443 -1.44772 -0.322269 -0.521957 0.539403 -3.53312 
165 -0.562687 4.29503 38.4024 -3.41986 -4.13926 -1.77121 0.0958974 -0.893894 -0.354754 -3.53458 
166 -0.612635 4.28991 40.9813 -3.25467 -3.91082 -1.52304 0.0962313 -0.882152 -0.365353 -3.53492 
167 -0.881523 6.44179 39.6793 -2.94695 -3.88134 -1.41099 0.127242 -1.32801 -0.499164 -3.53426 
168 1.36837 5.24827 39.69 -2.63541 -3.27817 -1.21767 -0.0509137 -0.8836 -0.362736 -3.5333 
169 -0.956404 6.43415 42.2586 -2.7766 -3.62954 -1.17627 0.126363 -1.30987 -0.512023 -3.53461 
170 3.61518 4.04196 39.6912 -3.04131 -2.89175 -1.2109 -0.309448 -0.524086 0.532259 -3.53329 
171 1.64081 3.10356 40.9875 -2.8321 -3.08937 -1.25296 -0.189428 -0.449236 0.0441416 -3.53 
172 1.6059 3.12365 43.5687 -2.61094 -2.86677 -0.997328 -0.18034 -0.446979 0.0332627 -3.53027 
173 1.30799 5.26581 42.2697 -2.44921 -3.0606 -0.981749 -0.0490119 -0.868944 -0.367662 -3.53355 
174 3.56975 4.0852 42.2708 -2.82441 -2.70335 -0.977063 -0.300523 -0.524681 0.522222 -3.53354 
175 -0.662128 4.28447 43.5622 -3.05119 -3.66354 -1.27756 0.0986949 -0.867646 -0.383985 -3.53523 
176 -0.711334 4.27865 46.1445 -2.82141 -3.39522 -1.01461 0.102481 -0.852486 -0.416212 -3.53549 
177 -1.0307 6.42627 44.8393 -2.55671 -3.34522 -0.959592 0.126728 -1.28885 -0.530305 -3.53496 
178 1.24817 5.2833 44.851 -2.2159 -2.80377 -0.748807 -0.0504696 -0.858351 -0.386504 -3.53386 
179 -1.10477 6.4185 47.4203 -2.29409 -3.01662 -0.772518 0.129176 -1.26941 -0.544375 -3.53529 
180 3.52475 4.1283 44.852 -2.55929 -2.47652 -0.75209 -0.292856 -0.53268 0.500663 -3.53383 
181 1.5711 3.14347 46.1516 -2.36274 -2.6179 -0.718946 -0.172214 -0.456145 0.00563468 -3.53054 
182 1.53627 3.16344 48.7364 -2.08835 -2.36126 -0.347591 -0.183395 -0.479124 -0.0351065 -3.53015 
183 1.18845 5.30075 47.4331 -1.9417 -2.50483 -0.51775 -0.0636404 -0.864541 -0.432085 -3.53412 
184 3.47991 4.1713 47.4338 -2.23969 -2.22072 -0.544336 -0.286564 -0.558746 0.45609 -3.53404 
185 -0.760746 4.27348 48.7284 -2.60138 -3.07336 -0.666328 0.0965626 -0.842762 -0.423415 -3.53517 
186 -0.811621 4.26877 51.3169 -1.98837 -2.35093 0.313305 0.0838933 -0.84222 -0.652849 -3.53805 
187 -1.17889 6.41384 50.0002 -2.05519 -2.54104 -0.330435 0.0856876 -1.27532 -0.621586 -3.53574 
188 1.12775 5.31799 50.0156 -1.56929 -2.079 -0.0208537 -0.110071 -0.944551 -0.598127 -3.53484 
189 -1.25707 6.40546 52.5877 -1.61245 -2.48693 0.643213 0.175826 -1.31631 -0.613003 -3.53281 
190 3.43505 4.21346 50.0156 -1.75957 -1.85325 -0.0396753 -0.309447 -0.668213 0.310754 -3.5349 
191 1.50027 3.18358 51.3264 -1.43166 -1.70128 0.657693 -0.172624 -0.54877 -0.132881 -3.53273 
192 1.46587 3.20964 53.9052 0.0267026 0.95399 -0.79588 0.566306 -0.560982 0.138971 -3.37565 
193 1.06597 5.33731 52.6041 -1.24919 -1.89859 0.441479 -0.236989 -0.80131 -0.410794 -3.52779 
194 3.38747 4.26008 52.6041 -1.41015 -1.71365 0.38981 -0.390656 -0.639416 0.587378 -3.52746 
195 -0.866323 4.2769 53.8949 -0.0508562 -0.20613 -1.18044 0.0793766 -1.26166 1.02744 -3.38132 
196 1.3298 4.1174 -56.3442 5.06942 2.90558 1.60241 -1.25473 -0.273891 0.110264 -2.79034 
197 -1.33605 6.40133 55.1665 4.18004 2.79747 1.28997 0.319919 -1.5232 0.197884 -3.26107 
198 1.00488 5.36129 55.1754 5.6421 6.63186 2.70775 0.36987 -0.636455 -0.0326076 -3.15047 
199 1.98371 6.26223 -55.1334 6.93988 9.11552 2.92915 0.134186 -0.847907 -0.525667 -3.02309 
200 3.34328 4.30996 55.1754 5.53065 7.35769 2.86912 0.118701 -0.27862 0.562642 -3.15115 
201 2.87095 2.09325 -56.362 4.04253 6.0065 1.88101 -3.16453 0.252648 0.341793 -2.79939 
202 2.84551 2.1252 -53.8874 0.165015 0.763296 -3.02649 -0.982105 -0.732813 -0.162363 -3.51266 
203 3.53831 4.21674 -55.1525 6.03166 6.27391 1.75935 0.302436 -1.2195 -0.0444733 -3.1433 
204 5.07312 2.13635 -55.1525 6.04997 7.03887 2.00315 0.446064 -0.528118 0.0805381 -3.14511 
205 1.29262 4.16451 -53.8815 0.86125 -0.348246 -3.6751 -0.408871 -0.57388 0.839002 -3.51412 
206 1.24176 4.17585 -51.3147 -1.28717 -1.91132 -0.377675 -0.214933 -0.880918 0.220676 -3.53903 
207 1.90264 6.26187 -52.5941 -0.918008 -1.45679 -0.573043 -0.184184 -1.16805 0.820094 -3.52792 
208 3.4607 4.22944 -52.6036 -0.748995 -0.925871 0.0953716 -0.677521 -0.496108 0.191351 -3.53019 
209 1.82403 6.27282 -50.0101 -1.64469 -2.32995 -0.269819 -0.197644 -1.27811 0.428669 -3.53673 
210 5.01221 2.17771 -52.6036 -1.34194 -0.3486 0.0545469 -0.502574 0.0191646 0.991485 -3.52952 
211 2.80522 2.14769 -51.32 -1.10372 -0.946961 -0.113738 -0.27822 -0.333548 0.26231 -3.53415 
212 2.77239 2.17446 -48.7405 -1.97228 -1.83896 -0.549489 -0.290802 -0.220271 0.334018 -3.53088 
213 3.40036 4.25787 -50.02 -1.43256 -1.6548 -0.14261 -0.408999 -0.706285 0.284982 -3.53497 
214 4.971 2.23184 -50.02 -1.84459 -1.27443 -0.115472 -0.296588 0.0231885 0.834676 -3.53501 
215 1.1898 4.18023 -48.7356 -2.18149 -2.76049 -0.795524 -0.179474 -0.843818 0.274296 -3.5364 
216 1.14011 4.18595 -46.1542 -2.6408 -3.19344 -0.98272 -0.160933 -0.828421 0.394932 -3.53605 
217 1.7489 6.27832 -47.4307 -2.10394 -2.83536 -0.684279 -0.211877 -1.23681 0.539484 -3.53589 
218 3.3453 4.28723 -47.4412 -1.90067 -2.20988 -0.567962 -0.299999 -0.635025 0.333306 -3.53415 
219 1.67516 6.28984 -44.8497 -2.47389 -3.19184 -0.870974 -0.197439 -1.24019 0.599255 -3.53535 
220 4.93506 2.28424 -47.4404 -2.32442 -1.78943 -0.544188 -0.210723 0.109015 0.862779 -3.5342 
221 2.74231 2.20147 -46.1595 -2.36835 -2.26998 -0.74274 -0.228892 -0.158026 0.389492 -3.53075 
222 2.71408 2.22991 -43.5778 -2.68168 -2.59277 -0.953342 -0.211508 -0.146448 0.410315 -3.53038 
223 3.29199 4.31921 -44.8606 -2.23774 -2.57442 -0.722665 -0.258346 -0.620931 0.369098 -3.53393 
224 4.90233 2.33713 -44.8596 -2.66116 -2.14404 -0.725484 -0.175264 0.1465 0.894455 -3.53393 
225 1.09112 4.19424 -43.5724 -2.98043 -3.51305 -1.21009 -0.146878 -0.83644 0.421481 -3.53554 
226 1.042 4.20331 -40.9914 -3.24131 -3.78816 -1.45095 -0.143742 -0.849834 0.428754 -3.5351 
227 1.60159 6.30314 -42.2688 -2.75729 -3.49778 -1.0975 -0.195994 -1.25808 0.615702 -3.53485 
228 3.23956 4.35271 -42.2798 -2.51208 -2.87073 -0.922043 -0.240461 -0.623323 0.387157 -3.53361 
229 1.52751 6.31718 -39.6891 -2.96901 -3.76488 -1.34109 -0.20245 -1.27766 0.619884 -3.53439 
230 4.87109 2.39097 -42.2788 -2.94534 -2.42624 -0.930927 -0.163681 0.158249 0.919888 -3.5336 
231 2.68636 2.25914 -40.9967 -2.93846 -2.85444 -1.18282 -0.207978 -0.144591 0.424622 -3.53007 
232 2.65872 2.28903 -38.4172 -3.1526 -3.06967 -1.4244 -0.212254 -0.144259 0.436314 -3.52982 
233 3.18732 4.38733 -39.7 -2.73018 -3.11079 -1.1453 -0.234459 -0.628639 0.397778 -3.53334 
234 4.8404 2.44581 -39.6989 -3.18284 -2.64423 -1.15442 -0.163739 0.162835 0.941844 -3.53333 
235 0.992464 4.21271 -38.412 -3.4418 -4.03256 -1.70171 -0.148261 -0.862838 0.430297 -3.53469 
236 0.942453 4.22238 -35.8351 -3.58348 -4.24285 -1.95696 -0.157504 -0.873645 0.425211 -3.53431 
237 1.45275 6.33178 -37.1116 -3.11194 -3.98847 -1.59298 -0.212996 -1.2942 0.61512 -3.53399 
238 3.13502 4.42293 -37.1221 -2.89228 -3.29453 -1.37869 -0.237487 -0.635698 0.400054 -3.53315 
239 1.37737 6.34694 -34.5372 -3.18694 -4.15736 -1.83939 -0.223346 -1.30717 0.596492 -3.53368 
240 4.80997 2.50168 -37.121 -3.37074 -2.80083 -1.38677 -0.173684 0.162089 0.955939 -3.53315 
241 2.63104 2.31951 -35.84 -3.32308 -3.23877 -1.67033 -0.223729 -0.146849 0.442147 -3.52964 
242 2.6033 2.35052 -33.2657 -3.44538 -3.35956 -1.91028 -0.242179 -0.155646 0.438268 -3.52955 
243 3.08257 4.4594 -34.5471 -2.99618 -3.42058 -1.6086 -0.248864 -0.647694 0.388756 -3.53307 
244 4.77973 2.55844 -34.5459 -3.50377 -2.89804 -1.61599 -0.193633 0.151076 0.957121 -3.53306 
245 0.892036 4.23231 -33.2612 -3.66573 -4.41005 -2.20527 -0.168092 -0.882434 0.409463 -3.534 
246 0.841284 4.24241 -30.6907 -3.69594 -4.5314 -2.4331 -0.177023 -0.889937 0.382032 -3.5338 
247 1.30146 6.36251 -31.9663 -3.20393 -4.26953 -2.06405 -0.230434 -1.31756 0.561715 -3.5335 
248 3.02988 4.49645 -31.9754 -3.0466 -3.49611 -1.82235 -0.266902 -0.6655 0.362747 -3.53307 
249 1.22511 6.37815 -29.399 -3.18075 -4.33467 -2.25594 -0.233207 -1.32584 0.514379 -3.53342 
250 4.7495 2.6158 -31.974 -3.58443 -2.94518 -1.82987 -0.222012 0.127426 0.945261 -3.53306 
251 2.57542 2.38186 -30.6946 -3.52094 -3.4362 -2.13299 -0.26583 -0.171206 0.424476 -3.52954 
252 2.54726 2.41329 -28.1267 -3.55833 -3.47914 -2.3301 -0.29175 -0.19106 0.404136 -3.52958 
253 2.97678 4.53366 -29.4069 -3.05598 -3.53513 -2.01169 -0.288606 -0.686597 0.326556 -3.53312 
254 4.71901 2.67343 -29.4055 -3.62318 -2.9575 -2.0198 -0.255421 0.0940024 0.924812 -3.5331 
255 0.790238 4.25245 -28.1235 -3.68879 -4.61279 -2.63086 -0.182498 -0.896483 0.346111 -3.53368 
256 0.738917 4.26222 -25.5594 -3.65945 -4.66397 -2.79506 -0.183933 -0.902011 0.306365 -3.53362 
257 1.14833 6.39345 -26.8348 -3.13493 -4.3665 -2.41181 -0.231809 -1.33199 0.460638 -3.53343 
258 2.9231 4.57063 -26.8416 -3.03849 -3.55131 -2.17328 -0.310709 -0.707857 0.286223 -3.53318 
259 1.07116 6.4081 -24.2734 -3.07976 -4.3774 -2.53405 -0.226704 -1.33616 0.405953 -3.53347 
260 4.68794 2.73103 -26.84 -3.63245 -2.94959 -2.18181 -0.290204 0.0558046 0.900774 -3.53316 
261 2.51868 2.44459 -25.562 -3.56857 -3.49995 -2.49766 -0.317178 -0.212125 0.381262 -3.52963 
262 2.48959 2.47563 -22.9998 -3.56158 -3.50803 -2.63563 -0.340247 -0.232162 0.358759 -3.52968 
263 2.86876 4.60707 -24.279 -3.00601 -3.55486 -2.30726 -0.330647 -0.727107 0.24633 -3.53323 
264 4.65609 2.7884 -24.2773 -3.62301 -2.93233 -2.31563 -0.323661 0.0172167 0.876731 -3.53321 
265 0.687335 4.27153 -22.9979 -3.61977 -4.69444 -2.92699 -0.181509 -0.906447 0.266655 -3.5336 
266 0.635513 4.28024 -20.4386 -3.57758 -4.71172 -3.03051 -0.17576 -0.909869 0.229343 -3.5336 
267 0.993626 6.42187 -21.7142 -3.02384 -4.37657 -2.62768 -0.21841 -1.33879 0.353861 -3.53354 
268 2.81371 4.64283 -21.7187 -2.96701 -3.55249 -2.41583 -0.34694 -0.743336 0.209429 -3.53327 
269 0.915766 6.43462 -19.1567 -2.97204 -4.37012 -2.69828 -0.207477 -1.34043 0.306086 -3.5336 
270 4.62332 2.84541 -21.7169 -3.60289 -2.91273 -2.42343 -0.354289 -0.0189661 0.854696 -3.53325 
271 2.45995 2.5063 -20.4399 -3.54482 -3.50988 -2.74642 -0.360036 -0.249994 0.338196 -3.52972 
272 2.42977 2.53657 -17.8819 -3.52338 -3.50949 -2.83364 -0.376314 -0.265251 0.320165 -3.52976 
273 2.75796 4.67779 -19.1603 -2.92689 -3.54822 -2.50212 -0.359057 -0.756385 0.176522 -3.5333 
274 4.5896 2.90197 -19.1585 -3.57758 -2.89483 -2.50854 -0.381491 -0.05143 0.835529 -3.53328 
275 0.583479 4.28831 -17.8811 -3.53749 -4.72115 -3.11031 -0.167329 -0.912474 0.195494 -3.53361 
276 0.531263 4.29568 -15.3249 -3.50184 -4.72622 -3.17091 -0.156841 -0.914504 0.165305 -3.53362 
277 0.837626 6.44631 -16.6007 -2.92666 -4.3618 -2.75092 -0.194474 -1.34158 0.263089 -3.53367 
278 2.70154 4.71192 -16.6034 -2.88876 -3.54429 -2.56956 -0.367093 -0.766575 0.147674 -3.53332 
279 0.759242 6.4569 -14.0457 -2.88835 -4.35373 -2.78975 -0.179946 -1.34259 0.224599 -3.53372 
280 4.55491 2.95804 -16.6016 -3.55054 -2.88063 -2.57464 -0.405227 -0.0798911 0.81937 -3.53331 
281 2.39906 2.5664 -15.3253 -3.50046 -3.50916 -2.90113 -0.389259 -0.278051 0.304685 -3.52978 
282 2.36786 2.59578 -12.7698 -3.47792 -3.51001 -2.95245 -0.399244 -0.288751 0.291479 -3.5298 
283 2.64451 4.7452 -14.0477 -2.85415 -3.54185 -2.62143 -0.371469 -0.77443 0.122466 -3.53334 
284 4.5193 3.01361 -14.0459 -3.52382 -2.87089 -2.62517 -0.425744 -0.104657 0.805968 -3.53333 
285 0.478896 4.30235 -12.7698 -3.47151 -4.72908 -3.21623 -0.144851 -0.916185 0.138483 -3.53364 
286 0.426401 4.30832 -10.2155 -3.44654 -4.73097 -3.24941 -0.131815 -0.917677 0.114504 -3.53365 
287 0.680649 6.46639 -11.4915 -2.85678 -4.347 -2.81799 -0.164371 -1.34365 0.189987 -3.53376 
288 2.5869 4.77765 -11.493 -2.8236 -3.54135 -2.66059 -0.372727 -0.780496 0.100281 -3.53335 
289 0.601876 6.47481 -8.93795 -2.83113 -4.34204 -2.83799 -0.14812 -1.34481 0.158495 -3.53379 
290 4.4828 3.06867 -11.4911 -3.4985 -2.86566 -2.66309 -0.443404 -0.126308 0.794892 -3.53334 
291 2.33619 2.62473 -10.2152 -3.45671 -3.51253 -2.99067 -0.4067 -0.297788 0.280146 -3.52982 
292 2.30408 2.65324 -7.66125 -3.43719 -3.51682 -3.01821 -0.412035 -0.305578 0.270264 -3.52983 
293 2.52876 4.80926 -8.93889 -2.79703 -3.54288 -2.68942 -0.371394 -0.785248 0.0804578 -3.53336 
294 4.44546 3.12321 -8.93701 -3.47502 -2.86465 -2.69076 -0.458581 -0.145494 0.785651 -3.53335 
295 0.373802 4.3136 -7.66173 -3.42644 -4.73255 -3.27286 -0.118092 -0.919045 0.0927678 -3.53366 
296 0.321116 4.31818 -5.10839 -3.41053 -4.73413 -3.28831 -0.103935 -0.920247 0.0726744 -3.53366 
297 0.52295 6.48215 -6.3848 -2.81043 -4.33896 -2.85145 -0.131439 -1.34599 0.12936 -3.53382 
298 2.47013 4.84005 -6.38532 -2.77407 -3.54638 -2.70975 -0.367907 -0.789043 0.0623786 -3.53336 
299 0.443901 6.48844 -3.83194 -2.79389 -4.33771 -2.85946 -0.114441 -1.34701 0.101866 -3.53383 
300 4.40731 3.17723 -6.38343 -3.45349 -2.86745 -2.71001 -0.471591 -0.162827 0.777773 -3.53336 
301 2.27157 2.68131 -5.10773 -3.41938 -3.52282 -3.03692 -0.415586 -0.312463 0.261437 -3.52984 
302 2.23866 2.70894 -2.55449 -3.40314 -3.53042 -3.04806 -0.417583 -0.3187 0.253317 -3.52984 
303 2.41104 4.87003 -3.83209 -2.75429 -3.55173 -2.72289 -0.362568 -0.792119 0.0455023 -3.53337 
304 4.36838 3.23072 -3.83018 -3.43383 -2.87367 -2.72214 -0.482657 -0.178827 0.77083 -3.53336 
305 0.268363 4.32208 -2.55532 -3.39816 -4.73584 -3.29689 -0.0894927 -0.921155 0.0536636 -3.53367 
306 0.364763 6.49367 -1.27923 -2.78104 -4.33821 -2.86268 -0.0971258 -1.3477 0.0753733 -3.53385 
307 2.35153 4.89919 -1.27904 -2.73736 -3.55884 -2.72967 -0.355526 -0.794624 0.0293692 -3.53337 
308 4.32872 3.28367 -1.27713 -3.41594 -2.88302 -2.72796 -0.491883 -0.193923 0.764462 -3.53336 
309 2.43655 7.09145 -0.00287995 -2.21273 -3.35738 -2.40116 -0.318081 -1.1987 -0.184284 -3.53292 
310 0.434814 8.66873 -0.00326157 -2.24613 -4.01205 -2.49484 -0.10004 -1.73391 0.0853923 -3.53361 