ITEM: TIMESTEP
409
ITEM: NUMBER OF ATOMS
37664
ITEM: BOX BOUNDS ff ff ff
-100 100
-100 100
-156.15 156.15
ITEM: ATOMS id x y z v_peratom_sxx v_peratom_syy v_peratom_szz v_peratom_sxy v_peratom_sxz v_peratom_syz c_atomPE 
1 -0.00391871 -0.00202466 0.000965099 -5.17834 -5.17001 -9.5398 0.000677718 -0.0133961 -0.0374271 -3.51526 
2 -0.00411002 -0.00178293 2.55417 -5.17746 -5.16925 -9.538 -2.22806e-05 -0.0138928 -0.0367225 -3.51527 
3 -0.00430967 -0.00150269 5.10746 -5.17225 -5.16446 -9.52638 -0.000903916 -0.0131199 -0.0358761 -3.51532 
4 -0.00451191 -0.00118851 7.66097 -5.16195 -5.15509 -9.50365 -0.00196593 -0.0106853 -0.0350013 -3.51542 
5 -0.00470295 -0.000852708 10.2149 -5.14561 -5.14026 -9.46784 -0.0031457 -0.0064678 -0.0341033 -3.51558 
6 -0.00486248 -0.000512504 12.7693 -5.12206 -5.11882 -9.41638 -0.00432457 -0.000699488 -0.0330617 -3.51582 
7 -0.00496763 -0.000185539 15.3246 -5.08987 -5.08916 -9.34609 -0.00536071 0.00605895 -0.0316847 -3.51614 
8 -0.00499818 0.000114208 17.8809 -5.04711 -5.04908 -9.25306 -0.00613339 0.0130537 -0.0298065 -3.51657 
9 -0.00494109 0.000378496 20.4387 -4.99101 -4.99551 -9.13254 -0.0065764 0.0195248 -0.0273745 -3.51712 
10 -0.00479289 0.000604447 22.9982 -4.91765 -4.9243 -8.97898 -0.0066885 0.0248716 -0.0244886 -3.51781 
11 -0.00455941 0.000792387 25.5599 -4.82175 -4.83002 -8.7867 -0.00652259 0.0287495 -0.0213866 -3.51866 
12 -0.00425334 0.000943127 28.1242 -4.69698 -4.70629 -8.55148 -0.00616281 0.0310881 -0.0183856 -3.5197 
13 -0.0038906 0.00105586 30.6916 -4.53739 -4.5472 -8.27371 -0.00569882 0.0320477 -0.0158013 -3.52089 
14 -0.00348667 0.00112734 33.2623 -4.3413 -4.35117 -7.96211 -0.00520455 0.0319385 -0.0138691 -3.52219 
15 -0.00305353 0.00115224 35.8361 -4.11647 -4.12608 -7.63413 -0.00472644 0.0311352 -0.0126988 -3.52346 
16 -0.00259798 0.00112388 38.4128 -3.87889 -3.888 -7.30809 -0.00428148 0.0299984 -0.0122797 -3.52457 
17 -0.0021209 0.00103434 40.9919 -3.64015 -3.64859 -6.99044 -0.00385991 0.0288243 -0.0125326 -3.52546 
18 -0.00161475 0.000873168 43.5732 -3.40123 -3.40883 -6.6684 -0.00342236 0.0278981 -0.0133875 -3.52619 
19 -0.00105965 0.000624663 46.157 -3.13706 -3.14346 -6.30511 -0.00286654 0.0274971 -0.0148012 -3.52693 
20 -0.000429537 0.000264019 48.7436 -2.75399 -2.75753 -5.86497 -0.0015993 0.0271509 -0.0166771 -3.52781 
21 5.95933e-07 -4.11185e-08 51.3317 -1.92329 -1.92302 -4.92095 0.000127254 -0.00139615 0.000871106 -3.53204 
22 4.01304e-07 -1.42881e-06 53.9138 -0.851839 -0.85185 -8.91778 4.99587e-07 -2.27087e-05 -7.16057e-05 -3.48169 
23 8.71386e-07 -1.98378e-06 56.3885 1.68561 1.68562 1.87696 -1.22236e-05 2.06249e-05 -9.49858e-07 -2.55581 
24 -1.23087e-07 -1.12453e-06 -53.8876 -2.6071 -2.60711 -6.54968 -1.58234e-05 1.04377e-05 -3.13454e-05 -3.40183 
25 1.02659e-07 -1.55837e-06 -51.3239 -2.07906 -2.0791 -5.579 -0.000381546 0.00103908 0.00210391 -3.52873 
26 -0.000271725 -0.000600269 -48.7462 -2.69297 -2.69172 -6.14638 0.00513509 -0.0171349 -0.0375151 -3.5264 
27 -0.000624427 -0.00144207 -46.1646 -3.01964 -3.01713 -6.34625 0.00911932 -0.0150068 -0.0349361 -3.52678 
28 -0.000876934 -0.00208097 -43.5821 -3.30106 -3.29698 -6.60639 0.0102638 -0.011714 -0.0329463 -3.52635 
29 -0.00104509 -0.00256807 -41.0007 -3.55649 -3.5505 -6.89444 0.0105809 -0.00845162 -0.0315678 -3.52575 
30 -0.00115656 -0.00293308 -38.4209 -3.80679 -3.79878 -7.20289 0.0103691 -0.00544086 -0.030596 -3.52492 
31 -0.00123772 -0.00319347 -35.8433 -4.05326 -4.04333 -7.52777 0.00975031 -0.00292413 -0.0299073 -3.52386 
32 -0.00131395 -0.00336228 -33.2684 -4.28653 -4.27503 -7.85801 0.00883393 -0.00116327 -0.0294873 -3.52262 
33 -0.00140791 -0.00345222 -30.6967 -4.49357 -4.48099 -8.17606 0.00775341 -0.000334877 -0.0293707 -3.52133 
34 -0.00153632 -0.00347661 -28.1281 -4.66582 -4.65275 -8.4648 0.00665355 -0.000448137 -0.0295939 -3.52011 
35 -0.00170708 -0.00344864 -25.5627 -4.80227 -4.78926 -8.71365 0.00565726 -0.0013184 -0.0301578 -3.51902 
36 -0.00191839 -0.0033802 -23 -4.9069 -4.89438 -8.91963 0.00483534 -0.00262064 -0.0310118 -3.51811 
37 -0.00216024 -0.00328133 -20.4396 -4.98554 -4.97378 -9.08507 0.00419621 -0.00400936 -0.0320717 -3.51737 
38 -0.00241788 -0.0031603 -17.8811 -5.04395 -5.03304 -9.215 0.00370006 -0.00524247 -0.0332479 -3.51677 
39 -0.00267601 -0.00302425 -15.3242 -5.08698 -5.0769 -9.31515 0.00328739 -0.00625162 -0.0344598 -3.51631 
40 -0.00292238 -0.00287913 -12.7685 -5.11847 -5.10907 -9.39097 0.00290598 -0.00713344 -0.0356279 -3.51596 
41 -0.00315002 -0.0027289 -10.2136 -5.14127 -5.13238 -9.4472 0.00252412 -0.00807241 -0.0366573 -3.5157 
42 -0.00335789 -0.00257413 -7.65942 -5.15747 -5.14892 -9.48767 0.00212765 -0.00923003 -0.037434 -3.51551 
43 -0.0035501 -0.0024109 -5.1057 -5.16853 -5.16014 -9.51537 0.00170589 -0.0106407 -0.0378486 -3.51538 
44 -0.00373422 -0.00223112 -2.55228 -5.17535 -5.167 -9.53236 0.00123635 -0.0121476 -0.0378389 -3.5153 
45 0.092276 2.15815 1.27649 -4.05264 -5.13723 -3.83745 -0.0509633 -0.449262 -0.00107774 -3.52908 
46 0.0657699 2.1594 3.82965 -4.04825 -5.13697 -3.83122 -0.039583 -0.44925 -0.0104495 -3.52909 
47 0.0392664 2.16035 6.38296 -4.0449 -5.13454 -3.81667 -0.0281989 -0.448081 -0.0201938 -3.52911 
48 0.0128016 2.16097 8.93658 -4.04306 -5.12967 -3.79262 -0.0166608 -0.445754 -0.0305734 -3.52914 
49 -0.0135841 2.16126 11.4907 -4.04341 -5.1219 -3.75747 -0.00484455 -0.442526 -0.0417902 -3.52917 
50 -0.039853 2.16119 14.0455 -4.04664 -5.11046 -3.70915 0.00724195 -0.438844 -0.0540385 -3.52922 
51 -0.065976 2.16075 16.6012 -4.05311 -5.0941 -3.64504 0.0193904 -0.435197 -0.0675672 -3.52927 
52 -0.0919366 2.15994 19.1581 -4.06249 -5.07083 -3.56179 0.0311827 -0.431975 -0.082702 -3.52934 
53 -0.117732 2.15875 21.7166 -4.07336 -5.03773 -3.45532 0.0420326 -0.429384 -0.0997754 -3.52942 
54 -0.143369 2.15722 24.2771 -4.08263 -4.99052 -3.32099 0.0512586 -0.427432 -0.118917 -3.52953 
55 -0.168866 2.15537 26.8399 -4.08466 -4.9232 -3.15439 0.0581908 -0.425958 -0.139649 -3.52967 
56 -0.19424 2.15326 29.4055 -4.07018 -4.82806 -2.95304 0.0623458 -0.424679 -0.160324 -3.52986 
57 -0.219504 2.151 31.9743 -4.02604 -4.697 -2.71901 0.0637134 -0.423223 -0.177819 -3.53012 
58 -0.244652 2.14866 34.5464 -3.93857 -4.52562 -2.46123 0.0630722 -0.421131 -0.188664 -3.53046 
59 -0.269654 2.14629 37.1216 -3.8023 -4.31932 -2.19389 0.0619541 -0.417875 -0.192603 -3.53087 
60 -0.294462 2.14381 39.6996 -3.6256 -4.09277 -1.92842 0.0619021 -0.413039 -0.194702 -3.53128 
61 -0.319049 2.14113 42.2798 -3.42043 -3.85668 -1.66507 0.0636116 -0.406763 -0.201096 -3.53164 
62 -0.343448 2.13816 44.8621 -3.19343 -3.60787 -1.39231 0.0663177 -0.399624 -0.218449 -3.53193 
63 -0.367813 2.13511 47.4464 -2.9151 -3.2963 -1.1068 0.0667088 -0.393948 -0.238785 -3.53223 
64 -0.392512 2.13371 50.032 -2.43252 -2.8015 -0.493775 0.0610007 -0.413262 -0.205434 -3.53324 
65 -0.418483 2.1304 52.6263 -1.76573 -2.00556 -0.561431 0.0455201 -0.308961 -0.729902 -3.52457 
66 -0.44812 2.14653 55.1778 6.97655 7.73842 2.43093 0.0330038 -0.597326 1.77024 -3.02528 
67 0.649859 2.05055 -55.162 1.38941 0.842343 -0.678494 -0.188256 -0.0991987 1.20759 -3.26036 
68 0.633027 2.08274 -52.6122 -1.11194 -2.21868 -0.457717 -0.374486 -0.489287 -0.161387 -3.53566 
69 0.607028 2.08678 -50.0319 -2.00541 -2.55529 -0.875015 -0.169512 -0.430101 0.0761335 -3.53397 
70 0.581226 2.08803 -47.4533 -2.63697 -3.07203 -1.20904 -0.124859 -0.404121 0.146999 -3.5329 
71 0.55635 2.09137 -44.8713 -3.05854 -3.44169 -1.3672 -0.103256 -0.398388 0.191521 -3.53225 
72 0.531681 2.09553 -42.2893 -3.35763 -3.72722 -1.59549 -0.0938998 -0.402165 0.203645 -3.53182 
73 0.506914 2.09994 -39.7086 -3.60141 -3.98311 -1.84568 -0.0921445 -0.407702 0.209928 -3.53141 
74 0.48195 2.10448 -37.1299 -3.80374 -4.22095 -2.10888 -0.0961542 -0.412917 0.213699 -3.53097 
75 0.456782 2.10913 -34.5538 -3.96146 -4.43567 -2.37796 -0.10428 -0.417407 0.212672 -3.53055 
76 0.431436 2.1139 -31.9807 -4.07027 -4.6175 -2.64086 -0.114213 -0.421434 0.204171 -3.53018 
77 0.40594 2.11872 -29.4108 -4.13349 -4.76125 -2.88392 -0.12343 -0.425241 0.188201 -3.52988 
78 0.380306 2.12351 -26.8442 -4.16147 -4.86904 -3.09712 -0.130065 -0.428812 0.167349 -3.52965 
79 0.354541 2.12814 -24.2805 -4.16616 -4.94726 -3.27624 -0.133266 -0.432012 0.144669 -3.52949 
80 0.328654 2.13256 -21.7193 -4.15744 -5.0031 -3.42184 -0.132994 -0.434735 0.122404 -3.52937 
81 0.302659 2.1367 -19.1602 -4.14231 -5.04283 -3.53727 -0.129651 -0.436965 0.101786 -3.52928 
82 0.276573 2.14053 -16.6028 -4.12524 -5.07123 -3.62697 -0.123793 -0.438787 0.0832838 -3.52921 
83 0.250413 2.14404 -14.0467 -4.10881 -5.09176 -3.69543 -0.115971 -0.440359 0.0669159 -3.52917 
84 0.224191 2.14722 -11.4916 -4.09431 -5.10677 -3.74667 -0.106676 -0.441863 0.0524827 -3.52913 
85 0.197913 2.15005 -8.93719 -4.08218 -5.11783 -3.78405 -0.0963334 -0.443443 0.039707 -3.52911 
86 0.171581 2.15256 -6.38335 -4.07232 -5.12596 -3.81024 -0.0853101 -0.445141 0.0282909 -3.52909 
87 0.145195 2.15474 -3.82989 -4.0644 -5.13174 -3.82717 -0.0739227 -0.446858 0.0179207 -3.52908 
88 0.118757 2.1566 -1.27665 -4.05796 -5.13546 -3.83606 -0.0624218 -0.448348 0.0082546 -3.52907 
89 0.215186 4.3248 -0.000793652 -3.39104 -4.74255 -3.30005 -0.0733235 -0.928432 0.0359749 -3.53365 
90 0.285157 6.49731 1.27497 -2.77296 -4.34473 -2.86323 -0.0783765 -1.35559 0.0482847 -3.53383 
91 2.20497 2.7357 -5.62623e-05 -3.38829 -3.54417 -3.05099 -0.416197 -0.328166 0.245968 -3.52984 
92 2.1713 2.76248 2.55306 -3.37428 -3.55356 -3.04966 -0.415936 -0.334134 0.238108 -3.52984 
93 2.29122 4.92709 1.2753 -2.72459 -3.57086 -2.73012 -0.345611 -0.802327 0.0117239 -3.53336 
94 4.28792 3.33572 1.27703 -3.39926 -2.89813 -2.7268 -0.498145 -0.211897 0.758641 -3.53336 
95 0.16227 4.32735 2.55215 -3.38288 -4.74394 -3.2973 -0.0587724 -0.928743 0.0176955 -3.53366 
96 0.109351 4.32924 5.10517 -3.37751 -4.74519 -3.28828 -0.0439518 -0.927713 -0.000918539 -3.53367 
97 0.205789 6.50048 3.82764 -2.76422 -4.34742 -2.85797 -0.0606852 -1.35491 0.0221565 -3.53383 
98 2.23086 4.95465 3.82833 -2.71115 -3.58016 -2.72596 -0.336019 -0.804041 -0.00434121 -3.53336 
99 0.126486 6.50261 6.38046 -2.76044 -4.35157 -2.84784 -0.0423968 -1.35319 -0.00458888 -3.53384 
100 4.2468 3.38761 3.83009 -3.38382 -2.91198 -2.72157 -0.504418 -0.226474 0.752201 -3.53336 
101 2.13728 2.78879 5.10628 -3.36129 -3.56427 -3.04164 -0.414186 -0.339542 0.23024 -3.52983 
102 2.10295 2.81462 7.65975 -3.34976 -3.5765 -3.02615 -0.410524 -0.344525 0.222165 -3.52983 
103 2.17018 4.98136 6.38152 -2.70079 -3.59118 -2.71543 -0.32443 -0.805064 -0.02066 -3.53336 
104 4.20501 3.4389 6.38333 -3.37018 -2.92869 -2.71011 -0.50844 -0.240824 0.745502 -3.53336 
105 0.0564924 4.33045 7.65841 -3.37606 -4.74634 -3.27233 -0.0286625 -0.925481 -0.0202746 -3.53368 
106 0.00375604 4.33097 10.212 -3.3799 -4.74742 -3.2485 -0.0127928 -0.92248 -0.0407593 -3.53369 
107 0.0473317 6.50368 8.93356 -2.76329 -4.35741 -2.83233 -0.0235051 -1.351 -0.0324823 -3.53383 
108 2.10925 5.00718 8.93502 -2.69463 -3.60401 -2.69771 -0.310554 -0.805764 -0.0376745 -3.53336 
109 -0.0316077 6.50366 11.4871 -2.77418 -4.36507 -2.81069 -0.00417165 -1.34903 -0.0620985 -3.53382 
110 4.16258 3.48955 8.93688 -3.35899 -2.94848 -2.69162 -0.509778 -0.255308 0.738332 -3.53336 
111 2.06834 2.83993 10.2136 -3.34039 -3.59033 -3.00195 -0.404503 -0.349378 0.213642 -3.52983 
112 2.03348 2.8647 12.7681 -3.33392 -3.60556 -2.9674 -0.395752 -0.35456 0.204338 -3.52982 
113 2.0481 5.03208 11.489 -2.69384 -3.61854 -2.6717 -0.29422 -0.806697 -0.0559532 -3.53336 
114 4.11954 3.53952 11.4909 -3.35098 -2.97145 -2.66491 -0.50803 -0.270424 0.730411 -3.53336 
115 -0.0488043 4.33078 12.7662 -3.39033 -4.74822 -3.21549 0.00359464 -0.919293 -0.0627918 -3.5337 
116 -0.101152 4.32985 15.3212 -3.40818 -4.74823 -3.17153 0.0202368 -0.916454 -0.0868731 -3.5337 
117 -0.110289 6.50255 14.0412 -2.79395 -4.37449 -2.78176 0.0152963 -1.34786 -0.0940969 -3.53379 
118 1.98678 5.05603 14.0436 -2.69938 -3.63443 -2.63594 -0.275404 -0.808523 -0.0762016 -3.53336 
119 -0.18869 6.50032 16.5962 -2.82292 -4.38528 -2.74382 0.034505 -1.34782 -0.129231 -3.53375 
120 4.07593 3.58877 14.0455 -3.34675 -2.99757 -2.62843 -0.502853 -0.286806 0.721337 -3.53336 
121 1.99841 2.8889 15.3233 -3.33091 -3.62166 -2.9204 -0.384039 -0.360657 0.193803 -3.5298 
122 1.96313 2.9125 17.8796 -3.33155 -3.63766 -2.85835 -0.369258 -0.368308 0.181479 -3.52978 
123 1.92531 5.07901 16.5991 -2.71179 -3.65105 -2.58849 -0.254187 -0.811901 -0.0992341 -3.53334 
124 4.03174 3.63729 16.601 -3.34668 -3.02657 -2.58016 -0.493966 -0.305196 0.710556 -3.53335 
125 -0.153267 4.32818 17.8771 -3.4337 -4.74642 -3.11418 0.0367024 -0.914286 -0.113589 -3.5337 
126 -0.205145 4.32578 20.4344 -3.46637 -4.74103 -3.04013 0.0524514 -0.912846 -0.143535 -3.53369 
127 -0.266806 6.49697 19.1521 -2.86084 -4.39652 -2.69433 0.0530425 -1.34887 -0.168297 -3.5337 
128 1.86369 5.10099 19.1557 -2.73115 -3.66736 -2.52692 -0.230697 -0.817412 -0.125902 -3.53333 
129 -0.344639 6.4925 21.7094 -2.90693 -4.40653 -2.62972 0.0705288 -1.35068 -0.211989 -3.53363 
130 3.98698 3.68502 19.1577 -3.35071 -3.05785 -2.51766 -0.481134 -0.32638 0.697362 -3.53334 
131 1.92765 2.9355 20.4372 -3.3353 -3.65203 -2.77811 -0.351404 -0.378109 0.166746 -3.52975 
132 1.89196 2.95789 22.9965 -3.34058 -3.66232 -2.67605 -0.330573 -0.390494 0.149062 -3.52972 
133 1.80192 5.12194 21.7137 -2.75684 -3.68176 -2.44817 -0.205093 -0.825513 -0.156948 -3.5333 
134 3.94164 3.73194 21.7157 -3.35816 -3.09029 -2.43802 -0.464188 -0.351091 0.680966 -3.53331 
135 -0.256795 4.32266 22.9933 -3.50457 -4.72917 -2.94521 0.066883 -0.911951 -0.177108 -3.53368 
136 -0.308227 4.31887 25.5542 -3.54504 -4.70633 -2.8245 0.0793578 -0.911266 -0.214121 -3.53369 
137 -0.422189 6.48696 24.2683 -2.95951 -4.41232 -2.54533 0.0866277 -1.35264 -0.260588 -3.53356 
138 1.74 5.14186 24.2735 -2.7873 -3.6917 -2.34868 -0.17763 -0.836473 -0.192743 -3.53327 
139 -0.499456 6.48042 26.8293 -3.01526 -4.40891 -2.43539 0.101002 -1.35404 -0.313417 -3.5335 
140 3.89574 3.77803 24.2754 -3.36736 -3.12182 -2.33798 -0.443137 -0.379813 0.660654 -3.53328 
141 1.85608 2.97967 25.5578 -3.34415 -3.66472 -2.5483 -0.307057 -0.405517 0.128235 -3.52967 
142 1.82002 3.00089 28.1217 -3.34016 -3.65326 -2.3915 -0.281569 -0.42246 0.104931 -3.52961 
143 1.67793 5.1608 26.8355 -2.81928 -3.69319 -2.22477 -0.148855 -0.850226 -0.232799 -3.53322 
144 3.84931 3.82329 26.8373 -3.375 -3.1488 -2.21412 -0.418408 -0.41239 0.636137 -3.53323 
145 -0.359461 4.31449 28.1175 -3.58157 -4.6657 -2.67305 0.0892116 -0.910424 -0.253174 -3.53372 
146 -0.410509 4.30969 30.6838 -3.60348 -4.59776 -2.48754 0.0958428 -0.909067 -0.290961 -3.5338 
147 -0.576438 6.47305 29.3927 -3.06781 -4.38838 -2.29374 0.1132 -1.35424 -0.368043 -3.53347 
148 1.61576 5.17886 29.4001 -2.84666 -3.68011 -2.07325 -0.119928 -0.86599 -0.275002 -3.53317 
149 -0.653136 6.46512 31.9592 -3.10582 -4.33891 -2.11562 0.122534 -1.35278 -0.419528 -3.53349 
150 3.80242 3.86776 29.4017 -3.37513 -3.16497 -2.06331 -0.391197 -0.447345 0.608182 -3.53317 
151 1.78386 3.02164 30.6886 -3.31901 -3.61915 -2.20411 -0.255566 -0.439282 0.0813999 -3.52956 
152 1.74773 3.04211 33.2586 -3.26719 -3.55127 -1.98825 -0.231411 -0.452356 0.0618677 -3.52955 
153 1.55355 5.19627 31.9677 -2.85877 -3.64348 -1.89261 -0.0929464 -0.88157 -0.314746 -3.53311 
154 3.75528 3.9116 31.9692 -3.35766 -3.16034 -1.8837 -0.363781 -0.481036 0.579466 -3.53311 
155 -0.461374 4.30466 33.2534 -3.59478 -4.4912 -2.26911 0.0989956 -0.906703 -0.322309 -3.53396 
156 -0.512019 4.29963 35.8265 -3.53752 -4.3371 -2.02644 0.0992322 -0.90241 -0.342667 -3.53423 
157 -0.729531 6.45702 34.5292 -3.11155 -4.24505 -1.90132 0.128166 -1.34916 -0.460804 -3.53362 
158 1.49148 5.21337 34.5386 -2.83932 -3.57125 -1.68456 -0.0708436 -0.892696 -0.345011 -3.53308 
159 -0.805558 6.44911 37.1028 -3.06358 -4.09216 -1.66097 0.129787 -1.34206 -0.486181 -3.53389 
160 3.70817 3.95503 34.54 -3.30732 -3.12095 -1.67641 -0.339327 -0.507573 0.554978 -3.53307 
161 1.7118 3.06249 35.8321 -3.1706 -3.43959 -1.75111 -0.211757 -0.457757 0.0508808 -3.52961 
162 1.67623 3.0829 38.4086 -3.02357 -3.28233 -1.50345 -0.197715 -0.455053 0.0480857 -3.52977 
163 1.42979 5.23055 37.1129 -2.76925 -3.4507 -1.45598 -0.0562806 -0.894068 -0.359829 -3.53313 
164 3.66147 3.99835 37.1141 -3.20592 -3.03252 -1.44809 -0.320618 -0.521506 0.539904 -3.53313 
165 -0.562361 4.29465 38.4027 -3.42273 -4.13784 -1.77468 0.0982157 -0.894988 -0.353536 -3.53458 
166 -0.612308 4.28957 40.9816 -3.25788 -3.90946 -1.52622 0.0981646 -0.883889 -0.363896 -3.53492 
167 -0.881087 6.4415 39.6796 -2.95019 -3.87987 -1.41448 0.128641 -1.32972 -0.498732 -3.53425 
168 1.36871 5.24801 39.6902 -2.63796 -3.27713 -1.2187 -0.0496319 -0.88439 -0.362436 -3.5333 
169 -0.95601 6.43389 42.2588 -2.77975 -3.62829 -1.17955 0.127432 -1.31211 -0.511226 -3.53461 
170 3.61542 4.04169 39.6913 -3.04315 -2.88999 -1.21109 -0.308053 -0.524018 0.532873 -3.53329 
171 1.64102 3.10324 40.9876 -2.83445 -3.08839 -1.25299 -0.187605 -0.449473 0.0454998 -3.53 
172 1.6061 3.12338 43.5688 -2.61324 -2.86588 -0.997388 -0.17891 -0.447553 0.0348132 -3.53027 
173 1.3083 5.26559 42.2698 -2.45189 -3.05974 -0.982836 -0.0480823 -0.870147 -0.367238 -3.53355 
174 3.56997 4.08498 42.2709 -2.82644 -2.70183 -0.977159 -0.299446 -0.524906 0.523033 -3.53354 
175 -0.661841 4.28417 43.5623 -3.05421 -3.66241 -1.28052 0.100229 -0.869949 -0.382142 -3.53523 
176 -0.711127 4.27844 46.1446 -2.82377 -3.39473 -1.01764 0.103597 -0.855315 -0.413715 -3.53549 
177 -1.03039 6.42607 44.8394 -2.55934 -3.34445 -0.962874 0.127531 -1.29152 -0.528924 -3.53496 
178 1.24842 5.28314 44.851 -2.2183 -2.80331 -0.74999 -0.0498953 -0.85981 -0.385752 -3.53386 
179 -1.10458 6.41838 47.4203 -2.29598 -3.01704 -0.776384 0.129769 -1.27251 -0.542058 -3.53528 
180 3.52493 4.12813 44.852 -2.56113 -2.47545 -0.752125 -0.292145 -0.533077 0.501798 -3.53383 
181 1.57125 3.14329 46.1516 -2.3646 -2.61743 -0.719179 -0.171251 -0.456886 0.00763189 -3.53054 
182 1.53633 3.16338 48.7364 -2.08959 -2.36157 -0.347824 -0.183233 -0.479912 -0.0323512 -3.53015 
183 1.1886 5.30066 47.4331 -1.94356 -2.50522 -0.518882 -0.0633795 -0.86614 -0.430877 -3.53412 
184 3.48002 4.17121 47.4338 -2.24098 -2.22057 -0.544078 -0.286186 -0.559286 0.457715 -3.53404 
185 -0.760666 4.2734 48.7285 -2.60303 -3.07463 -0.669957 0.0971231 -0.84666 -0.419531 -3.53516 
186 -0.811621 4.26877 51.3169 -1.98839 -2.35111 0.311851 0.0839005 -0.841938 -0.653067 -3.53805 
187 -1.17889 6.41384 50.0002 -2.05731 -2.54161 -0.333492 0.0867371 -1.27781 -0.619806 -3.53573 
188 1.12775 5.31799 50.0156 -1.56925 -2.07904 -0.0212454 -0.110548 -0.945583 -0.597579 -3.53484 
189 -1.25707 6.40546 52.5877 -1.61245 -2.48694 0.643194 0.175784 -1.31623 -0.613084 -3.53282 
190 3.43505 4.21346 50.0156 -1.75907 -1.85302 -0.0391887 -0.309464 -0.668748 0.311559 -3.5349 
191 1.50027 3.18358 51.3264 -1.43164 -1.70135 0.657924 -0.172632 -0.548528 -0.133048 -3.53273 
192 1.46587 3.20964 53.9052 0.0267192 0.954011 -0.795815 0.566316 -0.560964 0.139001 -3.37565 
193 1.06597 5.33731 52.6041 -1.24916 -1.89856 0.441524 -0.236967 -0.80133 -0.410828 -3.52779 
194 3.38747 4.26008 52.6041 -1.41014 -1.71356 0.389862 -0.390673 -0.639454 0.587327 -3.52746 
195 -0.866323 4.2769 53.8949 -0.0508823 -0.206099 -1.18047 0.0793682 -1.26166 1.02745 -3.38132 
196 1.3298 4.1174 -56.3442 5.06941 2.90561 1.60242 -1.25471 -0.273894 0.11026 -2.79034 
197 -1.33605 6.40133 55.1665 4.18011 2.79742 1.28998 0.31993 -1.52319 0.197844 -3.26107 
198 1.00488 5.36129 55.1754 5.64202 6.63184 2.70771 0.369833 -0.636466 -0.0326579 -3.15047 
199 1.98371 6.26223 -55.1334 6.93985 9.11552 2.92909 0.134193 -0.847903 -0.525651 -3.02309 
200 3.34328 4.30996 55.1754 5.53064 7.35761 2.86908 0.118715 -0.278648 0.562611 -3.15115 
201 2.87095 2.09325 -56.362 4.04253 6.00649 1.88097 -3.16453 0.25263 0.341776 -2.79939 
202 2.84551 2.1252 -53.8874 0.164967 0.763264 -3.02651 -0.982122 -0.732819 -0.162368 -3.51266 
203 3.53831 4.21674 -55.1525 6.03165 6.2739 1.75937 0.302437 -1.21952 -0.0444756 -3.1433 
204 5.07312 2.13635 -55.1525 6.04997 7.03886 2.00317 0.446068 -0.528124 0.0805273 -3.14511 
205 1.29262 4.16451 -53.8815 0.861254 -0.348315 -3.67507 -0.408901 -0.573877 0.839004 -3.51412 
206 1.24176 4.17585 -51.3147 -1.28694 -1.91107 -0.376104 -0.214923 -0.880461 0.220626 -3.53903 
207 1.90264 6.26187 -52.5941 -0.917914 -1.4568 -0.573069 -0.184169 -1.16801 0.820116 -3.52792 
208 3.4607 4.22944 -52.6036 -0.748848 -0.925826 0.0955189 -0.677504 -0.496042 0.191394 -3.53019 
209 1.82403 6.27282 -50.0101 -1.64499 -2.32832 -0.267591 -0.199759 -1.28174 0.428636 -3.53672 
210 5.01221 2.17771 -52.6036 -1.34183 -0.348539 0.0546872 -0.50255 0.0192199 0.991515 -3.52952 
211 2.80522 2.14769 -51.32 -1.1036 -0.946785 -0.112529 -0.278114 -0.333033 0.262143 -3.53414 
212 2.77224 2.17449 -48.7405 -1.96948 -1.83774 -0.545828 -0.290923 -0.227327 0.332451 -3.53088 
213 3.40036 4.25787 -50.02 -1.43169 -1.65401 -0.139816 -0.408529 -0.709916 0.283735 -3.53497 
214 4.971 2.23184 -50.02 -1.84367 -1.27411 -0.11357 -0.296486 0.0196962 0.833897 -3.53501 
215 1.18963 4.18027 -48.7356 -2.17838 -2.75864 -0.790651 -0.17974 -0.850542 0.275729 -3.5364 
216 1.13964 4.18606 -46.1541 -2.63698 -3.19303 -0.976744 -0.16263 -0.833774 0.395789 -3.53604 
217 1.74855 6.27834 -47.4306 -2.10071 -2.83552 -0.679187 -0.212488 -1.24132 0.539781 -3.53588 
218 3.34498 4.28725 -47.4411 -1.8987 -2.21004 -0.563175 -0.300335 -0.641085 0.331289 -3.53414 
219 1.67457 6.2899 -44.8495 -2.47001 -3.19258 -0.865459 -0.198527 -1.2446 0.599243 -3.53534 
220 4.93477 2.28427 -47.4403 -2.32232 -1.78979 -0.540979 -0.211379 0.103171 0.861721 -3.5342 
221 2.74188 2.20155 -46.1594 -2.36434 -2.26996 -0.738464 -0.230056 -0.163995 0.388244 -3.53074 
222 2.71343 2.23002 -43.5776 -2.67656 -2.59338 -0.948929 -0.213295 -0.152153 0.408915 -3.53037 
223 3.29141 4.31925 -44.8605 -2.23406 -2.57528 -0.717768 -0.258951 -0.626454 0.367128 -3.53392 
224 4.9018 2.33718 -44.8595 -2.65704 -2.14515 -0.721984 -0.176394 0.14111 0.893391 -3.53393 
225 1.09042 4.19439 -43.5722 -2.97584 -3.51299 -1.2037 -0.149285 -0.841584 0.421788 -3.53553 
226 1.04111 4.20348 -40.9911 -3.23578 -3.78818 -1.44433 -0.14658 -0.854713 0.428587 -3.53509 
227 1.6008 6.30321 -42.2685 -2.7526 -3.49883 -1.09158 -0.19734 -1.26235 0.615291 -3.53484 
228 3.23878 4.35275 -42.2796 -2.50752 -2.87211 -0.916872 -0.241363 -0.628581 0.385066 -3.5336 
229 1.52656 6.31724 -39.6887 -2.9635 -3.76606 -1.33489 -0.203919 -1.28162 0.61916 -3.53439 
230 4.87036 2.391 -42.2786 -2.94019 -2.42802 -0.927042 -0.165151 0.153088 0.918724 -3.5336 
231 2.68554 2.25925 -40.9964 -2.93257 -2.85529 -1.17843 -0.210187 -0.150085 0.422982 -3.53006 
232 2.65775 2.28911 -38.4168 -3.14612 -3.07056 -1.42013 -0.214715 -0.149388 0.434516 -3.52981 
233 3.18637 4.38734 -39.6996 -2.72491 -3.11249 -1.14001 -0.235576 -0.633524 0.395585 -3.53333 
234 4.83952 2.44582 -39.6986 -3.17705 -2.64643 -1.15031 -0.165399 0.157928 0.940548 -3.53333 
235 0.991423 4.21286 -38.4116 -3.43537 -4.03259 -1.69501 -0.151343 -0.867286 0.42982 -3.53468 
236 0.941302 4.22249 -35.8345 -3.57627 -4.24291 -1.95037 -0.160675 -0.877502 0.424601 -3.53431 
237 1.45167 6.33181 -37.1111 -3.10573 -3.98969 -1.58668 -0.214463 -1.2977 0.614215 -3.53398 
238 3.13395 4.4229 -37.1217 -2.88643 -3.29639 -1.37341 -0.238703 -0.64005 0.397861 -3.53315 
239 1.37621 6.34692 -34.5365 -3.18023 -4.15861 -1.83319 -0.224692 -1.31009 0.595539 -3.53367 
240 4.80897 2.50164 -37.1206 -3.36454 -2.8032 -1.38256 -0.175378 0.15755 0.954537 -3.53315 
241 2.62996 2.31955 -35.8395 -3.31619 -3.23959 -1.66627 -0.226293 -0.151429 0.440325 -3.52964 
242 2.60215 2.3505 -33.2651 -3.43822 -3.36028 -1.90645 -0.244714 -0.159515 0.436579 -3.52955 
243 3.08142 4.45932 -34.5465 -2.98993 -3.42251 -1.60343 -0.250054 -0.651373 0.386692 -3.53306 
244 4.77864 2.55833 -34.5454 -3.49737 -2.9004 -1.61177 -0.195218 0.147031 0.955676 -3.53306 
245 0.890816 4.23237 -33.2605 -3.65794 -4.41021 -2.19896 -0.171205 -0.885586 0.408882 -3.53401 
246 0.840039 4.24241 -30.6899 -3.68789 -4.53175 -2.42722 -0.179932 -0.892338 0.381617 -3.5338 
247 1.30028 6.36243 -31.9656 -3.19704 -4.27085 -2.05816 -0.231551 -1.31984 0.560825 -3.53349 
248 3.0287 4.4963 -31.9747 -3.04017 -3.49808 -1.81737 -0.267941 -0.668421 0.36094 -3.53307 
249 1.22395 6.37801 -29.3981 -3.17407 -4.33611 -2.25055 -0.234001 -1.32751 0.513632 -3.53342 
250 4.74836 2.61562 -31.9735 -3.578 -2.94743 -1.82571 -0.22336 0.123982 0.943859 -3.53306 
251 2.57423 2.38176 -30.6939 -3.5137 -3.43687 -2.12943 -0.268206 -0.174259 0.423073 -3.52954 
252 2.54607 2.41311 -28.126 -3.55115 -3.47988 -2.32679 -0.293846 -0.19326 0.403153 -3.52958 
253 2.97559 4.53343 -29.4062 -3.04963 -3.53713 -2.00694 -0.289377 -0.688749 0.325109 -3.53312 
254 4.71785 2.67317 -29.4048 -3.61688 -2.95959 -2.01575 -0.256431 0.0912219 0.923543 -3.53311 
255 0.78901 4.25239 -28.1227 -3.68083 -4.61344 -2.62555 -0.185067 -0.89817 0.345964 -3.53368 
256 0.737743 4.26209 -25.5585 -3.65198 -4.66503 -2.7904 -0.186049 -0.90309 0.306544 -3.53363 
257 1.14724 6.39325 -26.8339 -3.12889 -4.36815 -2.40709 -0.232209 -1.33312 0.460074 -3.53342 
258 2.92196 4.57033 -26.8408 -3.0325 -3.5534 -2.1688 -0.311115 -0.709305 0.285201 -3.53318 
259 1.07017 6.40783 -24.2723 -3.07474 -4.37934 -2.5301 -0.226663 -1.33688 0.40557 -3.53347 
260 4.6868 2.73069 -26.8393 -3.62642 -2.95154 -2.17791 -0.290796 0.0536989 0.899723 -3.53316 
261 2.51751 2.44435 -25.5611 -3.56162 -3.50092 -2.49458 -0.318886 -0.213513 0.380789 -3.52963 
262 2.48848 2.47532 -22.9989 -3.55502 -3.50941 -2.63273 -0.34148 -0.232842 0.358831 -3.52968 
263 2.86769 4.60671 -24.2781 -3.00067 -3.55713 -2.30307 -0.330618 -0.727978 0.245747 -3.53323 
264 4.655 2.78799 -24.2765 -3.61739 -2.93423 -2.3119 -0.323785 0.015744 0.875962 -3.53321 
265 0.686248 4.27133 -22.9969 -3.61316 -4.69599 -2.92303 -0.183092 -0.907071 0.267163 -3.5336 
266 0.634539 4.28 -20.4375 -3.57217 -4.71383 -3.02721 -0.176767 -0.910225 0.230133 -3.5336 
267 0.992772 6.42155 -21.7131 -3.02022 -4.37888 -2.62454 -0.217906 -1.33927 0.353619 -3.53353 
268 2.81274 4.6424 -21.7177 -2.96259 -3.55505 -2.41192 -0.346427 -0.743801 0.209246 -3.53327 
269 0.915067 6.43426 -19.1556 -2.97016 -4.37291 -2.69592 -0.206515 -1.34088 0.305911 -3.5336 
270 4.62231 2.84493 -21.7161 -3.59782 -2.91474 -2.41987 -0.353914 -0.0198957 0.854251 -3.53326 
271 2.45892 2.50593 -20.439 -3.53885 -3.51185 -2.74365 -0.360725 -0.250126 0.338788 -3.52972 
272 2.42884 2.53615 -17.8809 -3.51817 -3.51222 -2.83091 -0.376407 -0.265045 0.321192 -3.52976 
273 2.75712 4.67731 -19.1593 -2.92363 -3.5512 -2.49845 -0.358029 -0.756654 0.176651 -3.5333 
274 4.58867 2.90144 -19.1576 -3.57321 -2.89715 -2.50514 -0.3806 -0.0519513 0.835417 -3.53329 
275 0.582637 4.28802 -17.8799 -3.53357 -4.72386 -3.10759 -0.167749 -0.912784 0.196474 -3.53361 
276 0.530562 4.29535 -15.3237 -3.49962 -4.72954 -3.16867 -0.156691 -0.915038 0.166358 -3.53362 
277 0.83709 6.4459 -16.5995 -2.92676 -4.36515 -2.74926 -0.193089 -1.34226 0.262886 -3.53366 
278 2.70084 4.7114 -16.6023 -2.88687 -3.54782 -2.56608 -0.365543 -0.766895 0.147981 -3.53332 
279 0.758865 6.45646 -14.0444 -2.89055 -4.35769 -2.78867 -0.178205 -1.34383 0.224273 -3.53371 
280 4.5541 2.95747 -16.6007 -3.547 -2.88345 -2.57137 -0.403821 -0.0801819 0.819574 -3.53331 
281 2.39824 2.56595 -15.3243 -3.49619 -3.51274 -2.89837 -0.388725 -0.277759 0.306014 -3.52978 
282 2.36715 2.59531 -12.7687 -3.4747 -3.51447 -2.94963 -0.398082 -0.288656 0.292949 -3.5298 
283 2.64394 4.74466 -14.0466 -2.85377 -3.54598 -2.61809 -0.369422 -0.775078 0.12279 -3.53334 
284 4.5186 3.01302 -14.0449 -3.52122 -2.87434 -2.62201 -0.423851 -0.104932 0.806444 -3.53333 
285 0.478333 4.30199 -12.7685 -3.4711 -4.73299 -3.21437 -0.144168 -0.917256 0.1395 -3.53363 
286 0.42596 4.30792 -10.2141 -3.44783 -4.73542 -3.24788 -0.130668 -0.919621 0.115417 -3.53364 
287 0.680407 6.46592 -11.4902 -2.86096 -4.35156 -2.81738 -0.16237 -1.34581 0.189467 -3.53374 
288 2.58645 4.77709 -11.4918 -2.82472 -3.54606 -2.65741 -0.370257 -0.781763 0.10045 -3.53335 
289 0.601726 6.47431 -8.93654 -2.83684 -4.34713 -2.8378 -0.145991 -1.34822 0.157762 -3.53377 
290 4.48221 3.06808 -11.4901 -3.49687 -2.86977 -2.66004 -0.441098 -0.1268 0.795572 -3.53334 
291 2.33559 2.62424 -10.2141 -3.45456 -3.51776 -2.98779 -0.404963 -0.298175 0.281594 -3.52982 
292 2.30358 2.65275 -7.66006 -3.43603 -3.52256 -3.01539 -0.409855 -0.30669 0.271548 -3.52982 
293 2.52841 4.8087 -8.93767 -2.79947 -3.548 -2.68646 -0.368647 -0.787393 0.0803192 -3.53335 
294 4.44496 3.12263 -8.93597 -3.4743 -2.86927 -2.68788 -0.456003 -0.146427 0.786452 -3.53335 
295 0.373449 4.31316 -7.66029 -3.42907 -4.73743 -3.27168 -0.116586 -0.922165 0.0935643 -3.53364 
296 0.320807 4.31771 -5.10689 -3.41387 -4.73927 -3.2876 -0.102226 -0.924727 0.0733964 -3.53364 
297 0.522833 6.48162 -6.38332 -2.81685 -4.3444 -2.85167 -0.12934 -1.35086 0.128448 -3.53379 
298 2.46984 4.8395 -6.38405 -2.77739 -3.55162 -2.70715 -0.365109 -0.792235 0.0618223 -3.53336 
299 0.443746 6.48789 -3.83041 -2.79983 -4.3432 -2.86017 -0.11255 -1.35329 0.100849 -3.53381 
300 4.40688 3.17669 -6.38235 -3.45346 -2.87227 -2.70738 -0.468959 -0.164371 0.778597 -3.53336 
301 2.27112 2.68082 -5.10648 -3.41898 -3.52868 -3.03433 -0.413182 -0.314458 0.262456 -3.52983 
302 2.23825 2.70848 -2.55319 -3.40316 -3.53591 -3.04595 -0.415252 -0.321605 0.254013 -3.52983 
303 2.41076 4.8695 -3.83077 -2.75783 -3.55669 -2.72084 -0.360014 -0.796374 0.0444775 -3.53336 
304 4.36799 3.23023 -3.82907 -3.43414 -2.87827 -2.71988 -0.480252 -0.181069 0.771575 -3.53336 
305 0.268044 4.32159 -2.55377 -3.40137 -4.74099 -3.29685 -0.0877833 -0.926963 0.0543751 -3.53365 
306 0.364501 6.49312 -1.27768 -2.78515 -4.34334 -2.86394 -0.0956051 -1.35501 0.074328 -3.53382 
307 2.35121 4.8987 -1.27769 -2.74027 -3.56309 -2.72838 -0.353532 -0.799767 0.0278902 -3.53336 
308 4.32833 3.28325 -1.27599 -3.41609 -2.88692 -2.72623 -0.490005 -0.196833 0.765021 -3.53336 
309 2.43623 7.09098 -0.00154053 -2.21593 -3.36034 -2.401 -0.317023 -1.20516 -0.187693 -3.53291 