ITEM: TIMESTEP
0
ITEM: NUMBER OF ATOMS
37664
ITEM: BOX BOUNDS ff ff ff
-100 100
-100 100
-156.15 156.15
ITEM: ATOMS id x y z v_peratom_sxx v_peratom_syy v_peratom_szz v_peratom_sxy v_peratom_sxz v_peratom_syz c_atomPE 
1 -0.00340345 -0.00162049 -0.000367806 -5.18112 -5.16893 -9.54291 0.000222279 -0.00830338 -0.0470746 -3.51524 
2 -0.00362253 -0.00136437 2.5528 -5.1789 -5.16754 -9.53896 -0.000824519 -0.00669229 -0.0463647 -3.51526 
3 -0.00382099 -0.00109273 5.10608 -5.17239 -5.16213 -9.52492 -0.00193392 -0.00452298 -0.045377 -3.51532 
4 -0.00399633 -0.00080769 7.65962 -5.16105 -5.15228 -9.49982 -0.00309267 -0.0017001 -0.0441126 -3.51544 
5 -0.0041433 -0.000513425 10.2136 -5.14409 -5.13722 -9.46203 -0.00425778 0.00175869 -0.0425368 -3.51562 
6 -0.00425453 -0.000215359 12.7682 -5.12044 -5.11579 -9.40924 -0.00536327 0.00569704 -0.0405984 -3.51586 
7 -0.00432206 8.07243e-05 15.3235 -5.08858 -5.08638 -9.33834 -0.00633745 0.00984683 -0.0382641 -3.51619 
8 -0.00433916 0.000369273 17.88 -5.04638 -5.0467 -9.24536 -0.00712137 0.013895 -0.0355526 -3.51661 
9 -0.00430166 0.000644952 20.4379 -4.99084 -4.99359 -9.12536 -0.00768012 0.017558 -0.0325509 -3.51716 
10 -0.00420828 0.000902159 22.9976 -4.91786 -4.92282 -8.97258 -0.0080054 0.0206364 -0.0294121 -3.51785 
11 -0.0040602 0.0011344 25.5594 -4.82209 -4.82894 -8.78114 -0.00811197 0.023039 -0.0263367 -3.5187 
12 -0.00386008 0.00133387 28.1239 -4.69717 -4.70554 -8.54673 -0.00803152 0.0247793 -0.0235438 -3.51973 
13 -0.00361095 0.00149143 30.6913 -4.53726 -4.54675 -8.2697 -0.00780515 0.0259502 -0.0212337 -3.52092 
14 -0.00331535 0.00159696 33.262 -4.3408 -4.35103 -7.95877 -0.00747403 0.0266879 -0.0195534 -3.52221 
15 -0.00297467 0.00163969 35.8359 -4.11566 -4.12627 -7.63142 -0.0070704 0.0271377 -0.0185805 -3.52348 
16 -0.00258873 0.00160825 38.4127 -3.87791 -3.88853 -7.306 -0.0066113 0.0274265 -0.0183298 -3.52458 
17 -0.00215514 0.00148977 40.9918 -3.63912 -3.64944 -6.98894 -0.00609364 0.0276497 -0.0187872 -3.52547 
18 -0.00166637 0.00126716 43.5732 -3.40028 -3.40993 -6.66746 -0.00547871 0.0279419 -0.0199805 -3.52619 
19 -0.00110497 0.000914337 46.157 -3.1363 -3.14464 -6.3047 -0.00462842 0.0284734 -0.0219889 -3.52694 
20 -0.000451704 0.000391431 48.7436 -2.75377 -2.75845 -5.86506 -0.00261488 0.028535 -0.0247276 -3.52781 
21 5.95933e-07 -4.11185e-08 51.3317 -1.92328 -1.92292 -4.92093 0.000198577 -0.00147444 0.00131104 -3.53204 
22 4.01304e-07 -1.42881e-06 53.9138 -0.851869 -0.851882 -8.91779 -9.43309e-07 -2.41643e-05 -7.27477e-05 -3.48169 
23 8.71386e-07 -1.98378e-06 56.3885 1.6856 1.68561 1.87693 -1.36447e-05 2.20993e-05 -8.17589e-07 -2.55581 
24 -1.23087e-07 -1.12453e-06 -53.8876 -2.60704 -2.60706 -6.54967 -1.40286e-05 8.00141e-06 -3.32626e-05 -3.40183 
25 1.02659e-07 -1.55837e-06 -51.3239 -2.07921 -2.07928 -5.58074 -0.000520466 0.000582335 0.00243632 -3.52873 
26 -0.000131971 -0.000688838 -48.7463 -2.69724 -2.69545 -6.15266 0.00688275 -0.00848151 -0.0430631 -3.52638 
27 -0.000275769 -0.00163519 -46.1647 -3.02463 -3.0213 -6.35403 0.0122624 -0.0062496 -0.0395464 -3.52675 
28 -0.000355569 -0.00233155 -43.5824 -3.30603 -3.30106 -6.61462 0.0138105 -0.00290193 -0.036471 -3.52632 
29 -0.000378519 -0.00283771 -41.001 -3.5614 -3.5545 -6.90252 0.0142894 1.89082e-05 -0.0341589 -3.52572 
30 -0.000369692 -0.00319285 -38.4213 -3.81148 -3.80256 -7.21043 0.0141493 0.00220869 -0.032501 -3.52489 
31 -0.000353527 -0.00342277 -35.8438 -4.05762 -4.04677 -7.53454 0.013578 0.00343258 -0.0314593 -3.52383 
32 -0.000353009 -0.00354791 -33.269 -4.29057 -4.27801 -7.86392 0.0127097 0.00351691 -0.0310863 -3.5226 
33 -0.00038845 -0.00358725 -30.6973 -4.49741 -4.48348 -8.18117 0.0116711 0.00243734 -0.0314401 -3.52131 
34 -0.000475119 -0.003559 -28.1288 -4.66965 -4.65474 -8.46929 0.0105759 0.000371544 -0.0325233 -3.52009 
35 -0.00062095 -0.00347986 -25.5634 -4.80627 -4.79079 -8.71779 0.00950804 -0.00231759 -0.0342461 -3.51901 
36 -0.000825478 -0.00336395 -23.0007 -4.91122 -4.8955 -8.92366 0.00850984 -0.00516712 -0.0364222 -3.5181 
37 -0.00108055 -0.00322202 -20.4404 -4.99025 -4.97457 -9.08925 0.00758251 -0.0077377 -0.0388077 -3.51735 
38 -0.00137273 -0.00306148 -17.882 -5.04903 -5.03357 -9.21951 0.00670006 -0.00971702 -0.041157 -3.51676 
39 -0.00168641 -0.00288705 -15.3251 -5.09238 -5.07726 -9.32014 0.00582921 -0.0109688 -0.0432688 -3.51629 
40 -0.00200672 -0.00270155 -12.7694 -5.12405 -5.10933 -9.39649 0.00494577 -0.0115211 -0.0450075 -3.51594 
41 -0.00232148 -0.00250647 -10.2146 -5.14686 -5.13258 -9.45314 0.00404078 -0.0115092 -0.0463018 -3.51567 
42 -0.00262209 -0.00230208 -7.66052 -5.16282 -5.149 -9.49374 0.00311642 -0.0110989 -0.0471307 -3.51548 
43 -0.00290358 -0.00208753 -5.10688 -5.17334 -5.16 -9.52108 0.00217626 -0.0104161 -0.0475085 -3.51535 
44 -0.00316402 -0.00186103 -2.55355 -5.17929 -5.16648 -9.53709 0.00121632 -0.00950234 -0.0474729 -3.51527 
45 0.092732 2.15861 1.27494 -4.05256 -5.13341 -3.8375 -0.0522538 -0.442915 -0.0051185 -3.52909 
46 0.0662814 2.15985 3.8281 -4.04921 -5.1334 -3.82978 -0.0405341 -0.442364 -0.0144503 -3.5291 
47 0.0398552 2.16076 6.38145 -4.04752 -5.13143 -3.81377 -0.0286928 -0.441336 -0.0239892 -3.52912 
48 0.0134733 2.16134 8.93514 -4.04775 -5.12717 -3.78852 -0.0167268 -0.439868 -0.0339772 -3.52914 
49 -0.0128428 2.16157 11.4893 -4.05025 -5.12008 -3.75257 -0.0046696 -0.438089 -0.04467 -3.52917 
50 -0.0390731 2.16146 14.0442 -4.05531 -5.10929 -3.7039 0.00735983 -0.43618 -0.0563724 -3.52922 
51 -0.0652009 2.161 16.6001 -4.06291 -5.09347 -3.63979 0.0191305 -0.434306 -0.0694551 -3.52927 
52 -0.0912142 2.16019 19.1572 -4.07253 -5.07062 -3.55677 0.0302949 -0.432576 -0.0843296 -3.52933 
53 -0.117106 2.15902 21.7158 -4.08271 -5.03781 -3.45059 0.0403998 -0.431021 -0.101353 -3.52941 
54 -0.142875 2.15752 24.2764 -4.09053 -4.99079 -3.31653 0.0489117 -0.429592 -0.120621 -3.52952 
55 -0.168521 2.15572 26.8393 -4.09059 -4.92362 -3.15016 0.0552798 -0.428169 -0.141584 -3.52966 
56 -0.194046 2.15365 29.405 -4.07394 -4.82862 -2.949 0.0590869 -0.426571 -0.162518 -3.52985 
57 -0.219448 2.15142 31.9738 -4.02772 -4.6977 -2.71519 0.0603335 -0.42454 -0.180244 -3.53012 
58 -0.244708 2.1491 34.546 -3.93846 -4.52649 -2.4577 0.0597691 -0.421728 -0.191273 -3.53047 
59 -0.26979 2.14673 37.1213 -3.80087 -4.32037 -2.19073 0.0588784 -0.417698 -0.195371 -3.53088 
60 -0.294642 2.14424 39.6994 -3.62337 -4.09396 -1.92567 0.0591588 -0.412108 -0.197647 -3.53128 
61 -0.319237 2.14151 42.2797 -3.41792 -3.85792 -1.66273 0.0612769 -0.405145 -0.204297 -3.53165 
62 -0.343608 2.13847 44.862 -3.19116 -3.60896 -1.39021 0.0644757 -0.397387 -0.222071 -3.53193 
63 -0.367911 2.1353 47.4464 -2.91363 -3.297 -1.10421 0.0655385 -0.390991 -0.243156 -3.53223 
64 -0.392512 2.13371 50.032 -2.43052 -2.80165 -0.491171 0.0607509 -0.411405 -0.208404 -3.53325 
65 -0.418483 2.1304 52.6263 -1.76574 -2.00554 -0.561406 0.0455054 -0.308973 -0.729893 -3.52457 
66 -0.44812 2.14653 55.1778 6.97657 7.73842 2.43092 0.0330086 -0.597323 1.77023 -3.02528 
67 0.649859 2.05055 -55.162 1.38942 0.842359 -0.678452 -0.188255 -0.0991975 1.2076 -3.26036 
68 0.633027 2.08274 -52.6122 -1.11199 -2.21871 -0.457744 -0.374494 -0.489286 -0.161379 -3.53567 
69 0.607028 2.08678 -50.0319 -2.00593 -2.55753 -0.878615 -0.16706 -0.427222 0.0745509 -3.53397 
70 0.581507 2.08791 -47.4534 -2.64027 -3.07372 -1.21544 -0.122967 -0.398057 0.144768 -3.5329 
71 0.556864 2.09117 -44.8714 -3.06233 -3.44328 -1.37381 -0.100151 -0.392912 0.190032 -3.53225 
72 0.53238 2.0953 -42.2896 -3.36197 -3.72877 -1.60228 -0.0900545 -0.396983 0.202787 -3.53182 
73 0.507765 2.0997 -39.709 -3.60628 -3.98462 -1.85244 -0.087824 -0.4029 0.20951 -3.5314 
74 0.48292 2.10426 -37.1304 -3.80911 -4.22234 -2.11541 -0.0915262 -0.40866 0.2135 -3.53097 
75 0.457839 2.10895 -34.5544 -3.96727 -4.43683 -2.38407 -0.0994906 -0.413843 0.212468 -3.53054 
76 0.43255 2.11377 -31.9813 -4.07644 -4.61832 -2.64643 -0.10942 -0.418658 0.20375 -3.53017 
77 0.40708 2.11865 -29.4116 -4.13992 -4.76163 -2.88891 -0.118811 -0.423271 0.18738 -3.52987 
78 0.381445 2.1235 -26.845 -4.16804 -4.86891 -3.10155 -0.125797 -0.427587 0.165988 -3.52964 
79 0.355652 2.1282 -24.2814 -4.17268 -4.94657 -3.28017 -0.129509 -0.431407 0.142691 -3.52948 
80 0.329712 2.13267 -21.7203 -4.16369 -5.00185 -3.42538 -0.129868 -0.434585 0.119806 -3.52936 
81 0.303643 2.13686 -19.1612 -4.14804 -5.04104 -3.54054 -0.127233 -0.437076 0.0986411 -3.52927 
82 0.277465 2.14074 -16.6039 -4.13017 -5.06897 -3.63011 -0.122118 -0.438932 0.0797267 -3.52921 
83 0.251201 2.14429 -14.0478 -4.11271 -5.08908 -3.69854 -0.115043 -0.440268 0.0631081 -3.52917 
84 0.224872 2.14751 -11.4928 -4.09701 -5.10374 -3.7498 -0.106464 -0.441225 0.0485708 -3.52913 
85 0.198494 2.15039 -8.93848 -4.08368 -5.11451 -3.78714 -0.0967648 -0.441932 0.0357839 -3.52911 
86 0.172081 2.15294 -6.38473 -4.07278 -5.12238 -3.81308 -0.0862634 -0.442472 0.0243792 -3.5291 
87 0.145643 2.15516 -3.83134 -4.06415 -5.12796 -3.82945 -0.0752206 -0.442861 0.0139894 -3.52909 
88 0.11919 2.15705 -1.27816 -4.0575 -5.13159 -3.83739 -0.0638386 -0.443044 0.00426453 -3.52909 
89 0.215559 4.32531 -0.00238991 -3.38856 -4.73779 -3.29919 -0.0748349 -0.921164 0.0350561 -3.53368 
90 0.285591 6.49785 1.27341 -2.77226 -4.34054 -2.86147 -0.0792907 -1.34762 0.0492414 -3.53385 
91 2.20538 2.73613 -0.00137928 -3.38807 -3.53967 -3.05246 -0.418159 -0.324304 0.245566 -3.52984 
92 2.17176 2.76285 2.55172 -3.37495 -3.55037 -3.05011 -0.417078 -0.329722 0.23807 -3.52984 
93 2.29164 4.92752 1.27393 -2.72319 -3.56787 -2.73046 -0.346683 -0.796396 0.0136326 -3.53337 
94 4.28834 3.33607 1.27586 -3.39978 -2.89545 -2.72794 -0.499205 -0.208338 0.758351 -3.53337 
95 0.162766 4.32785 2.55055 -3.38306 -4.73988 -3.29554 -0.0597247 -0.921111 0.0167967 -3.53368 
96 0.10999 4.3297 5.10361 -3.38108 -4.74212 -3.28572 -0.0443075 -0.920558 -0.00170788 -3.53369 
97 0.206432 6.50098 3.82613 -2.76812 -4.34443 -2.85587 -0.0611165 -1.34763 0.0231199 -3.53385 
98 2.2314 4.95501 3.82697 -2.71249 -3.57843 -2.72534 -0.33613 -0.798165 -0.0021722 -3.53337 
99 0.127323 6.50305 6.37902 -2.76891 -4.34999 -2.84563 -0.0425525 -1.34747 -0.00358683 -3.53385 
100 4.24729 3.38789 3.82892 -3.38581 -2.91062 -2.72196 -0.504528 -0.222647 0.752283 -3.53337 
101 2.13782 2.78911 5.10496 -3.36341 -3.56251 -3.04095 -0.414365 -0.334991 0.230526 -3.52984 
102 2.10356 2.81487 7.65846 -3.35375 -3.57606 -3.02437 -0.409816 -0.340306 0.222693 -3.52983 
103 2.17085 4.98164 6.3802 -2.70525 -3.59061 -2.71395 -0.323742 -0.799848 -0.018414 -3.53337 
104 4.20556 3.4391 6.38218 -3.37399 -2.9286 -2.70974 -0.50769 -0.237072 0.745974 -3.53336 
105 0.0572676 4.33085 7.65693 -3.38322 -4.74443 -3.26922 -0.0285564 -0.919609 -0.020854 -3.53369 
106 0.00463303 4.33131 10.2106 -3.39025 -4.74666 -3.24515 -0.0125106 -0.918456 -0.0410676 -3.53369 
107 0.0483077 6.50405 8.93221 -2.77547 -4.35723 -2.83026 -0.0236794 -1.34737 -0.0314181 -3.53384 
108 2.11001 5.0074 8.93376 -2.70208 -3.60431 -2.69562 -0.30942 -0.801723 -0.0355541 -3.53336 
109 -0.0305719 6.50398 11.4858 -2.7886 -4.3661 -2.80891 -0.00466294 -1.34759 -0.0609816 -3.53381 
110 4.16319 3.48969 8.93576 -3.3647 -2.94941 -2.69056 -0.508443 -0.25199 0.739142 -3.53336 
111 2.06901 2.84013 10.2124 -3.34634 -3.59086 -2.99928 -0.403199 -0.345933 0.214285 -3.52982 
112 2.03419 2.86486 12.7669 -3.34158 -3.60665 -2.96414 -0.394284 -0.352217 0.204938 -3.52981 
113 2.04892 5.03226 11.4878 -2.70364 -3.61935 -2.66931 -0.293085 -0.804143 -0.054147 -3.53336 
114 4.12019 3.53963 11.4898 -3.35831 -2.97307 -2.66331 -0.506495 -0.267843 0.731442 -3.53336 
115 -0.0478819 4.33106 12.7649 -3.40289 -4.74845 -3.21219 0.00369524 -0.917309 -0.0628416 -3.53369 
116 -0.100251 4.3301 15.32 -3.42168 -4.74921 -3.16842 0.0198302 -0.916326 -0.0867512 -3.53369 
117 -0.109283 6.50282 14.0401 -2.80894 -4.3764 -2.7803 0.0142659 -1.34829 -0.0929748 -3.53378 
118 1.98759 5.05619 14.0425 -2.71052 -3.63543 -2.63352 -0.27468 -0.80751 -0.0748515 -3.53335 
119 -0.187796 6.50056 16.5951 -2.83696 -4.38771 -2.74254 0.0328394 -1.34954 -0.128176 -3.53374 
120 4.07657 3.58888 14.0445 -3.3552 -2.99954 -2.62647 -0.501521 -0.285158 0.722431 -3.53335 
121 1.99912 2.88905 15.3222 -3.33972 -3.62292 -2.91692 -0.382857 -0.359567 0.194202 -3.52979 
122 1.96379 2.91267 17.8786 -3.34074 -3.63884 -2.85499 -0.368718 -0.368429 0.181544 -3.52977 
123 1.92605 5.07917 16.5981 -2.72316 -3.65202 -2.58628 -0.254149 -0.812246 -0.0984125 -3.53334 
124 4.03234 3.6374 16.6001 -3.35555 -3.02865 -2.57805 -0.493157 -0.304539 0.711551 -3.53334 
125 -0.152453 4.32842 17.8761 -3.44681 -4.74787 -3.11126 0.0355816 -0.915559 -0.113428 -3.53368 
126 -0.204473 4.32603 20.4334 -3.47799 -4.7427 -3.0373 0.0505679 -0.914948 -0.14347 -3.53368 
127 -0.266088 6.4972 19.1512 -2.87284 -4.39918 -2.69298 0.0507793 -1.35125 -0.167385 -3.53368 
128 1.86431 5.10115 19.1548 -2.74171 -3.66821 -2.52502 -0.231441 -0.818768 -0.125604 -3.53332 
129 -0.344133 6.49274 21.7085 -2.91628 -4.40918 -2.62807 0.0678116 -1.35314 -0.211275 -3.53362 
130 3.9875 3.68516 19.1568 -3.35929 -3.05991 -2.51558 -0.481025 -0.326636 0.698129 -3.53333 
131 1.92821 2.9357 20.4363 -3.34406 -3.65301 -2.77511 -0.351692 -0.379238 0.166405 -3.52974 
132 1.89241 2.95812 22.9957 -3.34821 -3.66312 -2.67354 -0.331697 -0.392321 0.14831 -3.52971 
133 1.80239 5.12213 21.7129 -2.76582 -3.68252 -2.44659 -0.206546 -0.827463 -0.157104 -3.53329 
134 3.94205 3.73211 21.7149 -3.36582 -3.0923 -2.43611 -0.464803 -0.352074 0.681433 -3.5333 
135 -0.256299 4.32293 22.9924 -3.51396 -4.73091 -2.94229 0.0643367 -0.914331 -0.177243 -3.53367 
136 -0.307922 4.31917 25.5534 -3.55183 -4.70803 -2.82137 0.0763488 -0.913487 -0.214504 -3.53368 
137 -0.421907 6.48721 24.2675 -2.96606 -4.41483 -2.54318 0.0836593 -1.35478 -0.260093 -3.53355 
138 1.74029 5.14208 24.2728 -2.79424 -3.69244 -2.34737 -0.179607 -0.838614 -0.193231 -3.53326 
139 -0.499387 6.48069 26.8285 -3.01915 -4.41123 -2.43267 0.0979955 -1.35562 -0.313128 -3.53349 
140 3.89602 3.77824 24.2747 -3.37364 -3.12383 -2.33633 -0.444375 -0.381271 0.66081 -3.53327 
141 1.85639 2.97994 25.5572 -3.35015 -3.66541 -2.54634 -0.308883 -0.40769 0.127133 -3.52966 
142 1.82019 3.0012 28.1212 -3.34427 -3.65393 -2.39007 -0.283882 -0.424645 0.103585 -3.5296 
143 1.67805 5.16104 26.8349 -2.82402 -3.694 -2.22364 -0.151123 -0.852223 -0.233474 -3.53321 
144 3.84945 3.82353 26.8367 -3.37964 -3.15083 -2.21277 -0.420093 -0.414053 0.636026 -3.53322 
145 -0.359342 4.31483 28.1169 -3.58573 -4.66732 -2.66967 0.0859794 -0.912189 -0.253799 -3.53372 
146 -0.410555 4.31005 30.6833 -3.60523 -4.5993 -2.48395 0.0926131 -0.910204 -0.291788 -3.5338 
147 -0.576556 6.47334 29.3921 -3.06937 -4.39049 -2.29051 0.110342 -1.35517 -0.367922 -3.53346 
148 1.61571 5.17913 29.3995 -2.84927 -3.68104 -2.07223 -0.122266 -0.867598 -0.275723 -3.53316 
149 -0.653402 6.46543 31.9587 -3.10546 -4.34083 -2.11203 0.119958 -1.35303 -0.419534 -3.53349 
150 3.80244 3.86803 29.4013 -3.37805 -3.16704 -2.06228 -0.393134 -0.44896 0.607876 -3.53316 
151 1.7839 3.02199 30.6881 -3.32122 -3.61987 -2.20315 -0.258133 -0.441203 0.0799322 -3.52955 
152 1.74765 3.04247 33.2583 -3.2677 -3.55207 -1.98769 -0.23402 -0.453816 0.0603842 -3.52954 
153 1.55337 5.19655 31.9672 -2.8595 -3.64451 -1.89165 -0.0951768 -0.882631 -0.315401 -3.5331 
154 3.75519 3.91188 31.9688 -3.35897 -3.16241 -1.88297 -0.365788 -0.482401 0.579038 -3.5331 
155 -0.461552 4.30504 33.253 -3.5945 -4.49268 -2.26545 0.0959472 -0.907125 -0.323292 -3.53396 
156 -0.512288 4.30001 35.8261 -3.53571 -4.33856 -2.02285 0.0964864 -0.902091 -0.343781 -3.53423 
157 -0.729901 6.45733 34.5287 -3.10973 -4.2468 -1.89759 0.125953 -1.34873 -0.46092 -3.53362 
158 1.49121 5.21365 34.5382 -2.83853 -3.57235 -1.68365 -0.0728422 -0.893135 -0.34554 -3.53307 
159 -0.805983 6.44942 37.1024 -3.06079 -4.09377 -1.65731 0.127966 -1.34097 -0.486431 -3.53389 
160 3.708 3.95532 34.5397 -3.30726 -3.12299 -1.67595 -0.341255 -0.508555 0.554478 -3.53307 
161 1.71165 3.06286 35.8318 -3.16974 -3.44049 -1.75088 -0.214239 -0.458656 0.0494429 -3.5296 
162 1.67603 3.08325 38.4084 -3.02178 -3.2833 -1.50345 -0.199944 -0.455384 0.046692 -3.52976 
163 1.42947 5.23083 37.1126 -2.76737 -3.45181 -1.45509 -0.0579694 -0.893884 -0.360237 -3.53313 
164 3.66125 3.99863 37.1139 -3.20482 -3.03445 -1.44786 -0.322355 -0.522052 0.53934 -3.53312 
165 -0.562678 4.29503 38.4024 -3.41995 -4.13928 -1.77131 0.0958423 -0.893948 -0.354802 -3.53458 
166 -0.612629 4.28991 40.9813 -3.25472 -3.91083 -1.52312 0.096195 -0.882187 -0.365388 -3.53492 
167 -0.881518 6.44179 39.6793 -2.94696 -3.88134 -1.41102 0.127205 -1.32803 -0.499198 -3.53426 
168 1.36838 5.24827 39.69 -2.63546 -3.27819 -1.2178 -0.0509689 -0.883651 -0.362803 -3.5333 
169 -0.9564 6.43415 42.2586 -2.7766 -3.62954 -1.17629 0.12634 -1.30988 -0.512048 -3.53461 
170 3.61519 4.04196 39.6912 -3.04142 -2.89177 -1.21101 -0.309515 -0.524158 0.532208 -3.53329 
171 1.64081 3.10356 40.9875 -2.83221 -3.08939 -1.2531 -0.189492 -0.449308 0.0440801 -3.53 
172 1.60591 3.12365 43.5687 -2.611 -2.86678 -0.997442 -0.180386 -0.44703 0.0332189 -3.53027 
173 1.30799 5.26582 42.2697 -2.44925 -3.06062 -0.981851 -0.0490498 -0.868979 -0.367709 -3.53355 
174 3.56976 4.08521 42.2708 -2.82449 -2.70337 -0.977164 -0.300573 -0.524734 0.522184 -3.53354 
175 -0.662124 4.28447 43.5622 -3.05122 -3.66356 -1.27762 0.0986732 -0.86767 -0.384008 -3.53523 
176 -0.711332 4.27865 46.1445 -2.82143 -3.39523 -1.01466 0.102469 -0.852503 -0.416225 -3.53549 
177 -1.03069 6.42628 44.8393 -2.55671 -3.34522 -0.959607 0.126716 -1.28885 -0.530321 -3.53496 
178 1.24817 5.2833 44.851 -2.21591 -2.80379 -0.748894 -0.0504941 -0.858376 -0.386536 -3.53386 
179 -1.10477 6.4185 47.4203 -2.29409 -3.01662 -0.77251 0.12917 -1.26942 -0.544388 -3.53529 
180 3.52476 4.1283 44.852 -2.55933 -2.47654 -0.75218 -0.292892 -0.532719 0.500635 -3.53383 
181 1.57111 3.14347 46.1516 -2.36278 -2.61793 -0.719043 -0.172244 -0.456184 0.00560154 -3.53054 
182 1.53627 3.16344 48.7364 -2.08839 -2.36131 -0.34767 -0.183412 -0.479166 -0.0351517 -3.53015 
183 1.18845 5.30075 47.4331 -1.94171 -2.50485 -0.517845 -0.0636523 -0.86456 -0.432109 -3.53412 
184 3.47991 4.1713 47.4338 -2.23972 -2.22073 -0.544434 -0.286584 -0.558777 0.456067 -3.53404 
185 -0.760746 4.27348 48.7284 -2.60142 -3.07338 -0.666339 0.096551 -0.842783 -0.423423 -3.53517 
186 -0.811621 4.26877 51.3169 -1.98835 -2.35097 0.31332 0.0839016 -0.842221 -0.652844 -3.53805 
187 -1.17889 6.41384 50.0002 -2.05521 -2.54102 -0.330454 0.0856815 -1.27532 -0.621608 -3.53574 
188 1.12775 5.31799 50.0156 -1.56929 -2.07901 -0.0208693 -0.110074 -0.944576 -0.598155 -3.53484 
189 -1.25707 6.40546 52.5877 -1.61249 -2.48694 0.643182 0.175821 -1.3163 -0.613021 -3.53281 
190 3.43505 4.21346 50.0156 -1.75959 -1.85325 -0.0396935 -0.309455 -0.668226 0.310716 -3.5349 
191 1.50027 3.18358 51.3264 -1.43167 -1.7013 0.657712 -0.172626 -0.548767 -0.132873 -3.53273 
192 1.46587 3.20964 53.9052 0.0267151 0.954004 -0.795834 0.566312 -0.560969 0.138992 -3.37565 
193 1.06597 5.33731 52.6041 -1.24916 -1.89857 0.441524 -0.236978 -0.801321 -0.41082 -3.52779 
194 3.38747 4.26008 52.6041 -1.41014 -1.7136 0.389854 -0.390666 -0.639437 0.587348 -3.52746 
195 -0.866323 4.2769 53.8949 -0.0508692 -0.206105 -1.18044 0.0793701 -1.26166 1.02745 -3.38132 
196 1.3298 4.1174 -56.3442 5.06942 2.9056 1.60242 -1.25472 -0.273893 0.110262 -2.79034 
197 -1.33605 6.40133 55.1665 4.18009 2.79744 1.28998 0.319926 -1.52319 0.197857 -3.26107 
198 1.00488 5.36129 55.1754 5.64204 6.63185 2.70773 0.369845 -0.636462 -0.0326411 -3.15047 
199 1.98371 6.26223 -55.1334 6.93986 9.11552 2.92911 0.134191 -0.847904 -0.525657 -3.02309 
200 3.34328 4.30996 55.1754 5.53064 7.35763 2.86909 0.11871 -0.278638 0.562621 -3.15115 
201 2.87095 2.09325 -56.362 4.04253 6.00649 1.88098 -3.16453 0.252636 0.341782 -2.79939 
202 2.84551 2.1252 -53.8874 0.16498 0.763271 -3.02652 -0.982116 -0.732817 -0.162366 -3.51266 
203 3.53831 4.21674 -55.1525 6.03165 6.27391 1.75936 0.302437 -1.21951 -0.0444749 -3.1433 
204 5.07312 2.13635 -55.1525 6.04997 7.03886 2.00316 0.446067 -0.528121 0.0805307 -3.14511 
205 1.29262 4.16451 -53.8815 0.861247 -0.348297 -3.6751 -0.408891 -0.573878 0.839005 -3.51412 
206 1.24176 4.17585 -51.3147 -1.28712 -1.91127 -0.377524 -0.214934 -0.880899 0.22068 -3.53903 
207 1.90264 6.26187 -52.5941 -0.918028 -1.45683 -0.573117 -0.18419 -1.16806 0.820092 -3.52792 
208 3.4607 4.22944 -52.6036 -0.748958 -0.925861 0.0954358 -0.677519 -0.496107 0.191353 -3.53019 
209 1.82403 6.27282 -50.0101 -1.64462 -2.32977 -0.269606 -0.19769 -1.27822 0.42859 -3.53673 
210 5.01221 2.17771 -52.6036 -1.34191 -0.34857 0.0546101 -0.502568 0.0191637 0.991487 -3.52952 
211 2.80522 2.14769 -51.32 -1.10365 -0.946888 -0.113476 -0.278201 -0.333512 0.262318 -3.53415 
212 2.77238 2.17446 -48.7405 -1.97183 -1.83873 -0.548877 -0.290732 -0.220745 0.333824 -3.53088 
213 3.40036 4.25787 -50.02 -1.43236 -1.6546 -0.142238 -0.408944 -0.706465 0.284868 -3.53497 
214 4.971 2.23184 -50.02 -1.84433 -1.27429 -0.115116 -0.296562 0.0229897 0.83461 -3.53501 
215 1.18979 4.18023 -48.7356 -2.18104 -2.7602 -0.79506 -0.179381 -0.844089 0.274137 -3.5364 
216 1.14008 4.18595 -46.1542 -2.64021 -3.19319 -0.982159 -0.160786 -0.828629 0.394778 -3.53605 
217 1.74889 6.27831 -47.4307 -2.10356 -2.83518 -0.683827 -0.211771 -1.23694 0.539348 -3.53589 
218 3.34529 4.28722 -47.4412 -1.90034 -2.20978 -0.567398 -0.299925 -0.6353 0.333123 -3.53415 
219 1.67514 6.28983 -44.8497 -2.47342 -3.19163 -0.870533 -0.197271 -1.24032 0.599103 -3.53535 
220 4.93505 2.28423 -47.4403 -2.32402 -1.78936 -0.543669 -0.21068 0.108689 0.862678 -3.5342 
221 2.74228 2.20147 -46.1595 -2.36768 -2.26992 -0.742049 -0.228811 -0.158405 0.38932 -3.53075 
222 2.71404 2.2299 -43.5778 -2.68084 -2.59278 -0.952583 -0.2114 -0.146846 0.410113 -3.53038 
223 3.29196 4.31921 -44.8606 -2.23724 -2.57435 -0.722091 -0.258235 -0.621183 0.368902 -3.53393 
224 4.90231 2.33713 -44.8596 -2.66055 -2.144 -0.724965 -0.175201 0.146202 0.894353 -3.53393 
225 1.09108 4.19423 -43.5724 -2.97971 -3.5128 -1.2095 -0.146677 -0.83667 0.421285 -3.53554 
226 1.04196 4.2033 -40.9914 -3.24041 -3.78788 -1.45035 -0.143483 -0.850103 0.428507 -3.5351 
227 1.60156 6.30313 -42.2688 -2.75671 -3.49754 -1.09705 -0.195768 -1.25824 0.615515 -3.53485 
228 3.23953 4.35271 -42.2798 -2.51146 -2.87069 -0.921422 -0.240321 -0.623596 0.386928 -3.53361 
229 1.52748 6.31717 -39.689 -2.96829 -3.76461 -1.34062 -0.202169 -1.27784 0.619667 -3.53439 
230 4.87106 2.39096 -42.2788 -2.94459 -2.42622 -0.93037 -0.163599 0.157939 0.919771 -3.5336 
231 2.68632 2.25914 -40.9967 -2.93747 -2.85448 -1.182 -0.207841 -0.145042 0.424371 -3.53007 
232 2.65866 2.28902 -38.4172 -3.15144 -3.06972 -1.42354 -0.212091 -0.144759 0.436017 -3.52982 
233 3.18728 4.38732 -39.6999 -2.72943 -3.11076 -1.14464 -0.234295 -0.628942 0.39751 -3.53334 
234 4.84036 2.44581 -39.6989 -3.18196 -2.64422 -1.15383 -0.16364 0.162503 0.941709 -3.53333 
235 0.99241 4.2127 -38.412 -3.4407 -4.03224 -1.7011 -0.147947 -0.863146 0.430011 -3.53469 
236 0.942391 4.22236 -35.8351 -3.58218 -4.24248 -1.95635 -0.157147 -0.873983 0.42491 -3.53431 
237 1.45271 6.33176 -37.1116 -3.11106 -3.98814 -1.5925 -0.212665 -1.2944 0.614887 -3.53399 
238 3.13497 4.42292 -37.1221 -2.89141 -3.2945 -1.37801 -0.237307 -0.636022 0.399756 -3.53315 
239 1.37732 6.34692 -34.5371 -3.18587 -4.15699 -1.8389 -0.222981 -1.30739 0.596265 -3.53368 
240 4.80993 2.50168 -37.121 -3.36975 -2.80081 -1.38616 -0.17357 0.161745 0.955789 -3.53315 
241 2.63097 2.31951 -35.84 -3.32178 -3.23881 -1.66946 -0.223543 -0.147376 0.441815 -3.52964 
242 2.60323 2.35051 -33.2656 -3.44397 -3.35955 -1.90942 -0.241983 -0.156166 0.437923 -3.52956 
243 3.08252 4.45939 -34.5471 -2.99517 -3.42054 -1.6079 -0.248676 -0.64802 0.388444 -3.53307 
244 4.77968 2.55843 -34.5459 -3.50268 -2.89798 -1.61537 -0.193509 0.150739 0.956965 -3.53306 
245 0.891965 4.23229 -33.2612 -3.66422 -4.40964 -2.20467 -0.167719 -0.882787 0.409172 -3.534 
246 0.841207 4.24238 -30.6907 -3.69428 -4.53096 -2.43253 -0.176669 -0.89029 0.381777 -3.5338 
247 1.30141 6.36249 -31.9663 -3.20269 -4.26913 -2.06356 -0.230059 -1.31779 0.561515 -3.5335 
248 3.02983 4.49644 -31.9753 -3.04547 -3.49605 -1.82168 -0.26672 -0.665807 0.362443 -3.53307 
249 1.22505 6.37812 -29.3989 -3.17934 -4.33426 -2.25547 -0.232853 -1.32607 0.514225 -3.53342 
250 4.74945 2.61579 -31.974 -3.58328 -2.94508 -1.82927 -0.221885 0.127119 0.945112 -3.53306 
251 2.57535 2.38185 -30.6945 -3.51948 -3.43614 -2.13219 -0.265641 -0.171689 0.424141 -3.52954 
252 2.54718 2.41327 -28.1267 -3.55687 -3.47901 -2.32937 -0.291587 -0.19148 0.403833 -3.52958 
253 2.97672 4.53364 -29.4069 -3.05475 -3.53504 -2.01105 -0.288444 -0.686868 0.326279 -3.53312 
254 4.71895 2.67342 -29.4055 -3.622 -2.95736 -2.01923 -0.255303 0.093743 0.92468 -3.53311 
255 0.790158 4.25243 -28.1235 -3.68701 -4.61236 -2.63033 -0.1822 -0.896823 0.345909 -3.53368 
256 0.738836 4.2622 -25.5594 -3.65762 -4.66357 -2.79459 -0.183727 -0.902331 0.306224 -3.53362 
257 1.14827 6.39343 -26.8348 -3.13338 -4.36611 -2.41137 -0.231512 -1.33222 0.460539 -3.53343 
258 2.92304 4.57061 -26.8416 -3.0372 -3.55119 -2.17269 -0.310582 -0.708082 0.285988 -3.53318 
259 1.07109 6.40808 -24.2733 -3.07809 -4.37705 -2.53365 -0.226495 -1.33638 0.40591 -3.53347 
260 4.68788 2.73103 -26.84 -3.63128 -2.94941 -2.18129 -0.290106 0.0556041 0.900671 -3.53316 
261 2.51861 2.44458 -25.5619 -3.56718 -3.49976 -2.49704 -0.31706 -0.212471 0.381006 -3.52963 
262 2.48952 2.47562 -22.9998 -3.56029 -3.5078 -2.63514 -0.340192 -0.232432 0.358556 -3.52968 
263 2.8687 4.60706 -24.279 -3.00469 -3.55472 -2.30675 -0.330572 -0.727284 0.246145 -3.53323 
264 4.65603 2.7884 -24.2773 -3.62189 -2.93211 -2.31518 -0.323597 0.0170763 0.876661 -3.53321 
265 0.687255 4.27151 -22.9979 -3.61795 -4.69408 -2.9266 -0.181423 -0.906742 0.266572 -3.5336 
266 0.635435 4.28023 -20.4386 -3.57581 -4.71143 -3.0302 -0.175811 -0.910133 0.229305 -3.5336 
267 0.993551 6.42185 -21.7141 -3.02208 -4.37627 -2.62733 -0.218314 -1.339 0.353866 -3.53354 
268 2.81364 4.64282 -21.7187 -2.9657 -3.55233 -2.41541 -0.34693 -0.743469 0.209293 -3.53327 
269 0.91569 6.43461 -19.1567 -2.97019 -4.36989 -2.69799 -0.207504 -1.34062 0.306124 -3.5336 
270 4.62327 2.8454 -21.7169 -3.60185 -2.91249 -2.42305 -0.354271 -0.0190538 0.85466 -3.53325 
271 2.45989 2.5063 -20.4399 -3.54368 -3.50961 -2.74608 -0.360056 -0.250199 0.338042 -3.52972 
272 2.42971 2.53657 -17.8819 -3.52238 -3.50921 -2.83343 -0.376416 -0.265404 0.320051 -3.52976 
273 2.7579 4.67778 -19.1603 -2.9256 -3.54804 -2.5018 -0.359119 -0.756479 0.176426 -3.5333 
274 4.58955 2.90197 -19.1585 -3.57662 -2.89459 -2.50825 -0.381527 -0.0514777 0.835519 -3.53329 
275 0.583404 4.2883 -17.8811 -3.53578 -4.72093 -3.11007 -0.167519 -0.912695 0.19548 -3.53361 
276 0.531193 4.29568 -15.3249 -3.50018 -4.72606 -3.17073 -0.157154 -0.914663 0.16529 -3.53363 
277 0.837549 6.4463 -16.6007 -2.92473 -4.36164 -2.75069 -0.194617 -1.34172 0.263139 -3.53367 
278 2.70148 4.71192 -16.6034 -2.88749 -3.5441 -2.56933 -0.367225 -0.766633 0.147607 -3.53333 
279 0.759166 6.4569 -14.0457 -2.88635 -4.35363 -2.78957 -0.180177 -1.34264 0.224639 -3.53372 
280 4.55487 2.95804 -16.6016 -3.54968 -2.8804 -2.57444 -0.405319 -0.0799125 0.819375 -3.53331 
281 2.39901 2.5664 -15.3253 -3.49959 -3.50887 -2.90104 -0.38944 -0.278163 0.304594 -3.52978 
282 2.36781 2.59579 -12.7698 -3.47714 -3.50974 -2.95248 -0.399489 -0.28883 0.291395 -3.5298 
283 2.64445 4.74521 -14.0477 -2.85291 -3.54166 -2.62129 -0.37166 -0.774445 0.122417 -3.53334 
284 4.51926 3.01362 -14.0459 -3.52303 -2.87069 -2.62505 -0.425886 -0.104663 0.805975 -3.53333 
285 0.47883 4.30236 -12.7698 -3.46991 -4.72897 -3.2161 -0.145252 -0.916252 0.138443 -3.53364 
286 0.426342 4.30834 -10.2155 -3.44499 -4.7309 -3.24932 -0.132254 -0.917621 0.114422 -3.53365 
287 0.680577 6.4664 -11.4915 -2.85478 -4.34693 -2.81784 -0.164642 -1.34357 0.189999 -3.53376 
288 2.58685 4.77765 -11.493 -2.82239 -3.54118 -2.66052 -0.372949 -0.780457 0.100242 -3.53335 
289 0.601811 6.47482 -8.93796 -2.82926 -4.34201 -2.83788 -0.148373 -1.34459 0.15847 -3.53379 
290 4.48277 3.06868 -11.4911 -3.49777 -2.86549 -2.66303 -0.44358 -0.126301 0.79489 -3.53334 
291 2.33615 2.62474 -10.2152 -3.456 -3.5123 -2.99077 -0.406982 -0.297831 0.28006 -3.52982 
292 2.30405 2.65325 -7.66125 -3.43653 -3.51665 -3.01837 -0.412318 -0.305575 0.270175 -3.52983 
293 2.52872 4.80927 -8.93889 -2.79588 -3.54276 -2.6894 -0.371609 -0.785142 0.0804288 -3.53336 
294 4.44543 3.12322 -8.93701 -3.47436 -2.86453 -2.69076 -0.458763 -0.145472 0.785635 -3.53335 
295 0.373751 4.31361 -7.66173 -3.425 -4.73251 -3.27279 -0.118505 -0.918846 0.0926385 -3.53366 
296 0.321077 4.3182 -5.1084 -3.4093 -4.73412 -3.28824 -0.10426 -0.919914 0.072506 -3.53367 
297 0.522898 6.48216 -6.38481 -2.80887 -4.33897 -2.85135 -0.131617 -1.34564 0.129299 -3.53382 
298 2.47009 4.84006 -6.38532 -2.77306 -3.54633 -2.70975 -0.368072 -0.788865 0.0623639 -3.53336 
299 0.443867 6.48844 -3.83194 -2.79282 -4.33776 -2.85939 -0.114505 -1.34658 0.101784 -3.53384 
300 4.40728 3.17724 -6.38343 -3.45291 -2.8674 -2.71005 -0.471748 -0.162781 0.777743 -3.53336 
301 2.27154 2.68132 -5.10773 -3.41879 -3.52274 -3.03709 -0.415825 -0.312405 0.261349 -3.52984 
302 2.23865 2.70895 -2.55449 -3.40268 -3.53044 -3.0482 -0.417735 -0.318583 0.253243 -3.52984 
303 2.41102 4.87004 -3.83209 -2.75351 -3.55176 -2.72289 -0.362647 -0.791877 0.0455083 -3.53337 
304 4.36837 3.23073 -3.83019 -3.43338 -2.87369 -2.7222 -0.48276 -0.178751 0.770796 -3.53336 
305 0.268339 4.3221 -2.55533 -3.39728 -4.73587 -3.29683 -0.0896791 -0.92073 0.0534774 -3.53367 
306 0.364751 6.49367 -1.27924 -2.78063 -4.33831 -2.86265 -0.0970733 -1.34728 0.0752879 -3.53385 
307 2.35152 4.89919 -1.27905 -2.73692 -3.55897 -2.72965 -0.355503 -0.794346 0.0293994 -3.53337 
308 4.32871 3.28368 -1.27713 -3.41568 -2.88311 -2.72802 -0.491913 -0.193816 0.764433 -3.53336 
309 2.43656 7.09145 -0.0028876 -2.21267 -3.35753 -2.40106 -0.317958 -1.1984 -0.18417 -3.53292 
310 0.434822 8.66873 -0.00326606 -2.24641 -4.0122 -2.49492 -0.0999013 -1.73363 0.085372 -3.53361 