ITEM: TIMESTEP
0
ITEM: NUMBER OF ATOMS
37664
ITEM: BOX BOUNDS ff ff ff
-100 100
-100 100
-156.15 156.15
ITEM: ATOMS id x y z v_peratom_sxx v_peratom_syy v_peratom_szz v_peratom_sxy v_peratom_sxz v_peratom_syz c_atomPE 
1 -0.00340549 -0.00163677 -0.000377793 -5.18108 -5.16879 -9.54266 0.000413087 -0.00833583 -0.0465254 -3.51524 
2 -0.00363444 -0.00137609 2.55279 -5.1789 -5.16742 -9.53884 -0.000663182 -0.00688624 -0.0458281 -3.51526 
3 -0.00384495 -0.00109834 5.10607 -5.17233 -5.16201 -9.5249 -0.00183504 -0.00476103 -0.0449178 -3.51532 
4 -0.00403383 -0.000806808 7.65961 -5.16085 -5.15214 -9.49982 -0.00307708 -0.0018419 -0.0437768 -3.51544 
5 -0.0041943 -0.00050682 10.2136 -5.14368 -5.13703 -9.46198 -0.00432778 0.00183493 -0.042338 -3.51561 
6 -0.00431714 -0.000204605 12.7681 -5.11979 -5.11557 -9.40907 -0.00550388 0.00606085 -0.0405195 -3.51586 
7 -0.00439289 9.3791e-05 15.3235 -5.08771 -5.08612 -9.33803 -0.00652389 0.0105051 -0.038271 -3.51619 
8 -0.00441403 0.000382993 17.88 -5.04534 -5.0464 -9.24491 -0.0073275 0.0148027 -0.0356087 -3.51661 
9 -0.00437635 0.000658065 20.4379 -4.98972 -4.99328 -9.12478 -0.00788407 0.0186383 -0.032627 -3.51716 
10 -0.00427912 0.000913832 22.9975 -4.91672 -4.9225 -8.97191 -0.00819154 0.0218003 -0.0294882 -3.51785 
11 -0.00412439 0.00114417 25.5594 -4.82099 -4.82863 -8.78043 -0.00827069 0.0242009 -0.0264005 -3.5187 
12 -0.00391579 0.00134159 28.1238 -4.69617 -4.70525 -8.54602 -0.00815829 0.0258665 -0.0235884 -3.51973 
13 -0.00365735 0.00149717 30.6913 -4.53639 -4.54649 -8.26903 -0.00789971 0.0269093 -0.0212572 -3.52092 
14 -0.00335247 0.001601 33.262 -4.34008 -4.35081 -7.95816 -0.00753963 0.0274882 -0.019558 -3.52221 
15 -0.0030032 0.0016424 35.8359 -4.11509 -4.12608 -7.6309 -0.00711268 0.0277718 -0.0185719 -3.52348 
16 -0.00260975 0.00161001 38.4126 -3.87747 -3.88838 -7.30557 -0.00663678 0.0279057 -0.0183156 -3.52458 
17 -0.00216992 0.0014909 40.9918 -3.63879 -3.64931 -6.98859 -0.0061084 0.0279972 -0.0187741 -3.52547 
18 -0.00167613 0.00126788 43.5732 -3.40005 -3.40983 -6.66718 -0.00548742 0.0281864 -0.0199738 -3.52619 
19 -0.0011107 0.000914743 46.157 -3.13612 -3.14455 -6.30449 -0.00463379 0.0286448 -0.0219901 -3.52694 
20 -0.000453909 0.000391547 48.7436 -2.75366 -2.75838 -5.86496 -0.0026175 0.028665 -0.0247363 -3.52781 
21 5.95933e-07 -4.11185e-08 51.3317 -1.92318 -1.92281 -4.92077 0.000200304 -0.00147475 0.00131213 -3.53204 
22 4.01304e-07 -1.42881e-06 53.9138 -0.851943 -0.851956 -8.91782 -1.3939e-06 -2.89575e-05 -7.29954e-05 -3.48168 
23 8.71386e-07 -1.98378e-06 56.3885 1.68558 1.68559 1.87684 -1.71601e-05 2.57248e-05 -2.40792e-07 -2.55581 
24 -1.23087e-07 -1.12453e-06 -53.8876 -2.6069 -2.60692 -6.54959 -1.4787e-05 6.6309e-06 -3.46172e-05 -3.40183 
25 1.02659e-07 -1.55837e-06 -51.3239 -2.07935 -2.07946 -5.58127 -0.000523504 0.000494486 0.00245365 -3.52873 
26 -0.000107478 -0.000691586 -48.7463 -2.69853 -2.69633 -6.15421 0.00688553 -0.00694768 -0.0432437 -3.52637 
27 -0.000219803 -0.00164001 -46.1647 -3.02622 -3.0222 -6.35579 0.0122512 -0.00464525 -0.03966 -3.52675 
28 -0.000276123 -0.00233581 -43.5824 -3.3078 -3.30198 -6.6165 0.0137294 -0.000957237 -0.0364762 -3.52631 
29 -0.000278529 -0.00283887 -41.0011 -3.56337 -3.55547 -6.90447 0.0140973 0.00238751 -0.0340355 -3.52571 
30 -0.000251405 -0.00318892 -38.4214 -3.81362 -3.80359 -7.2124 0.013818 0.00497923 -0.0322355 -3.52488 
31 -0.000220335 -0.00341261 -35.8439 -4.05985 -4.04784 -7.53643 0.0130991 0.00650317 -0.0310563 -3.52382 
32 -0.000209945 -0.00353157 -33.2691 -4.29278 -4.27908 -7.86564 0.0121012 0.00673102 -0.0305761 -3.52259 
33 -0.000241813 -0.00356603 -30.6974 -4.49946 -4.48449 -8.18261 0.0109759 0.00561837 -0.0308759 -3.52131 
34 -0.000331676 -0.0035352 -28.1289 -4.67142 -4.65564 -8.4704 0.00985236 0.00335881 -0.031967 -3.52009 
35 -0.000487066 -0.00345625 -25.5635 -4.80769 -4.79153 -8.71852 0.00881652 0.000357496 -0.0337519 -3.51901 
36 -0.000706358 -0.00334321 -23.0008 -4.91224 -4.89606 -8.92402 0.00790102 -0.0028674 -0.0360248 -3.5181 
37 -0.000979648 -0.00320634 -20.4405 -4.99087 -4.97492 -9.08929 0.00709084 -0.00582077 -0.0385161 -3.51735 
38 -0.0012914 -0.0030523 -17.882 -5.0493 -5.03374 -9.21929 0.00634183 -0.00814536 -0.0409543 -3.51676 
39 -0.00162398 -0.00288499 -15.3252 -5.09236 -5.07726 -9.31974 0.00560446 -0.00968159 -0.0431162 -3.5163 
40 -0.00196092 -0.00270644 -12.7695 -5.12385 -5.10922 -9.39597 0.00484288 -0.0104616 -0.0448536 -3.51594 
41 -0.00228922 -0.00251744 -10.2147 -5.14656 -5.1324 -9.45256 0.00404198 -0.010647 -0.046095 -3.51567 
42 -0.00260033 -0.00231768 -7.66055 -5.16252 -5.1488 -9.49317 0.00320166 -0.0104365 -0.0468322 -3.51548 
43 -0.00289012 -0.0021058 -5.1069 -5.1731 -5.1598 -9.52058 0.00232394 -0.00997722 -0.0471028 -3.51535 
44 -0.00315799 -0.00187959 -2.55356 -5.17915 -5.1663 -9.5367 0.00140112 -0.00930629 -0.0469739 -3.51527 
45 0.0927303 2.1586 1.27494 -4.05288 -5.13329 -3.83751 -0.0521289 -0.443394 -0.00473307 -3.52909 
46 0.0662605 2.15985 3.8281 -4.04905 -5.13323 -3.82978 -0.0405941 -0.442803 -0.014129 -3.5291 
47 0.0398143 2.16076 6.38144 -4.04679 -5.1312 -3.81372 -0.0289067 -0.441642 -0.0237572 -3.52912 
48 0.0134144 2.16135 8.93513 -4.04647 -5.12692 -3.78837 -0.017033 -0.439984 -0.0338346 -3.52914 
49 -0.0129157 2.16158 11.4893 -4.04853 -5.11982 -3.75232 -0.00499797 -0.438006 -0.0445972 -3.52918 
50 -0.0391547 2.16147 14.0442 -4.05332 -5.10905 -3.70356 0.00706696 -0.435923 -0.0563421 -3.52922 
51 -0.0652855 2.16101 16.6001 -4.06083 -5.09325 -3.63938 0.0189076 -0.433919 -0.0694427 -3.52927 
52 -0.0912969 2.1602 19.1571 -4.0705 -5.07041 -3.55631 0.0301538 -0.432108 -0.0843177 -3.52933 
53 -0.117183 2.15903 21.7158 -4.08085 -5.03762 -3.45011 0.0403363 -0.430517 -0.101332 -3.52941 
54 -0.142943 2.15753 24.2763 -4.08892 -4.99062 -3.31605 0.0489124 -0.429092 -0.120587 -3.52952 
55 -0.168578 2.15572 26.8392 -4.08927 -4.92347 -3.14969 0.0553271 -0.427709 -0.141536 -3.52966 
56 -0.194093 2.15366 29.405 -4.07291 -4.82848 -2.94858 0.0591624 -0.426175 -0.162459 -3.52985 
57 -0.219484 2.15142 31.9738 -4.02695 -4.69759 -2.71482 0.0604196 -0.424221 -0.180179 -3.53012 
58 -0.244736 2.1491 34.546 -3.93793 -4.52639 -2.45738 0.0598517 -0.421485 -0.191208 -3.53047 
59 -0.26981 2.14673 37.1213 -3.80051 -4.32029 -2.19047 0.0589479 -0.417523 -0.195312 -3.53088 
60 -0.294656 2.14424 39.6994 -3.62314 -4.0939 -1.92547 0.0592108 -0.411986 -0.197599 -3.53128 
61 -0.319246 2.14151 42.2797 -3.41778 -3.85787 -1.66256 0.0613116 -0.405062 -0.204263 -3.53165 
62 -0.343614 2.13847 44.862 -3.19106 -3.60892 -1.39008 0.0644964 -0.397328 -0.22205 -3.53193 
63 -0.367914 2.1353 47.4464 -2.91355 -3.29696 -1.10409 0.0655521 -0.390945 -0.243141 -3.53223 
64 -0.392512 2.13371 50.032 -2.43048 -2.80165 -0.491052 0.0607414 -0.411388 -0.208395 -3.53325 
65 -0.418483 2.1304 52.6263 -1.76579 -2.00549 -0.561387 0.0454828 -0.308961 -0.72995 -3.52457 
66 -0.44812 2.14653 55.1778 6.97661 7.73844 2.43089 0.0330206 -0.597319 1.77021 -3.02528 
67 0.649859 2.05055 -55.162 1.38945 0.842402 -0.678332 -0.188251 -0.0991966 1.20762 -3.26036 
68 0.633027 2.08274 -52.6122 -1.11202 -2.21873 -0.457739 -0.374497 -0.489288 -0.161408 -3.53567 
69 0.607028 2.08678 -50.0319 -2.00611 -2.55804 -0.879254 -0.16687 -0.427012 0.0745982 -3.53397 
70 0.581537 2.08791 -47.4534 -2.64124 -3.0742 -1.21651 -0.12308 -0.397606 0.144947 -3.5329 
71 0.556915 2.09117 -44.8715 -3.06355 -3.44376 -1.3749 -0.100313 -0.392457 0.190285 -3.53225 
72 0.532449 2.0953 -42.2896 -3.36345 -3.72926 -1.60341 -0.0902778 -0.396456 0.203149 -3.53182 
73 0.50785 2.09971 -39.7091 -3.60806 -3.98516 -1.85359 -0.0881198 -0.402289 0.209977 -3.5314 
74 0.48302 2.10428 -37.1305 -3.81117 -4.22293 -2.11655 -0.0918903 -0.407979 0.214049 -3.53096 
75 0.45795 2.10897 -34.5544 -3.96957 -4.43748 -2.38516 -0.0998995 -0.413121 0.21306 -3.53054 
76 0.43267 2.11379 -31.9814 -4.07891 -4.619 -2.64744 -0.109834 -0.417934 0.204338 -3.53016 
77 0.407204 2.11868 -29.4117 -4.14244 -4.7623 -2.8898 -0.119183 -0.42258 0.187922 -3.52987 
78 0.381567 2.12352 -26.8451 -4.17049 -4.86954 -3.10229 -0.126084 -0.426955 0.166453 -3.52964 
79 0.355768 2.12822 -24.2815 -4.17495 -4.94712 -3.28075 -0.129674 -0.430849 0.143062 -3.52948 
80 0.329819 2.13268 -21.7203 -4.1657 -5.0023 -3.42579 -0.12989 -0.434103 0.120085 -3.52936 
81 0.303738 2.13687 -19.1613 -4.14975 -5.04138 -3.54081 -0.127105 -0.43667 0.0988474 -3.52927 
82 0.277548 2.14074 -16.6039 -4.13159 -5.0692 -3.63024 -0.121848 -0.438602 0.0798922 -3.52921 
83 0.251271 2.14428 -14.0479 -4.11388 -5.08922 -3.69857 -0.114653 -0.440021 0.0632707 -3.52917 
84 0.224931 2.1475 -11.4928 -4.09803 -5.10382 -3.74976 -0.105988 -0.441079 0.048767 -3.52913 
85 0.198543 2.15037 -8.9385 -4.08461 -5.11454 -3.78706 -0.096246 -0.441914 0.0360402 -3.52911 
86 0.172121 2.15292 -6.38473 -4.07368 -5.12238 -3.81301 -0.0857567 -0.442607 0.0247049 -3.52909 
87 0.145672 2.15514 -3.83134 -4.06497 -5.12793 -3.8294 -0.0747872 -0.443155 0.0143722 -3.52909 
88 0.119205 2.15703 -1.27816 -4.05815 -5.13153 -3.83739 -0.0635381 -0.443466 0.00467138 -3.52908 
89 0.215566 4.3253 -0.00238034 -3.389 -4.73767 -3.29924 -0.0748081 -0.921732 0.035283 -3.53368 
90 0.285574 6.49785 1.27342 -2.77182 -4.34033 -2.86141 -0.0794764 -1.34804 0.049331 -3.53385 
91 2.20538 2.73612 -0.00137795 -3.3884 -3.53949 -3.05233 -0.418114 -0.324517 0.24563 -3.52984 
92 2.17175 2.76285 2.55173 -3.3749 -3.55008 -3.05004 -0.41718 -0.329957 0.238098 -3.52984 
93 2.29163 4.92752 1.27394 -2.72318 -3.56762 -2.7305 -0.346832 -0.796745 0.0135673 -3.53337 
94 4.28834 3.33607 1.27587 -3.39981 -2.89525 -2.72785 -0.499267 -0.208508 0.758367 -3.53337 
95 0.162746 4.32784 2.55055 -3.38271 -4.73968 -3.29553 -0.0598807 -0.921583 0.0169796 -3.53368 
96 0.109945 4.3297 5.10361 -3.37995 -4.74186 -3.28561 -0.0445812 -0.920851 -0.00158183 -3.53369 
97 0.206387 6.50098 3.82613 -2.76683 -4.34416 -2.8557 -0.0613453 -1.34787 0.0231818 -3.53386 
98 2.23137 4.95501 3.82697 -2.7119 -3.57813 -2.72537 -0.336341 -0.798441 -0.00224428 -3.53337 
99 0.127255 6.50305 6.37901 -2.76699 -4.3497 -2.84536 -0.0427561 -1.34751 -0.00354829 -3.53385 
100 4.24726 3.38789 3.82893 -3.38548 -2.91036 -2.72188 -0.504661 -0.222819 0.752276 -3.53337 
101 2.13779 2.78911 5.10496 -3.36294 -3.56216 -3.04093 -0.414574 -0.335199 0.230526 -3.52984 
102 2.10351 2.81487 7.65846 -3.35285 -3.57568 -3.02437 -0.410072 -0.340441 0.222684 -3.52983 
103 2.1708 4.98165 6.3802 -2.70416 -3.5903 -2.71394 -0.323955 -0.800006 -0.0184697 -3.53337 
104 4.20553 3.4391 6.38218 -3.37333 -2.92832 -2.70966 -0.507856 -0.237217 0.745949 -3.53337 
105 0.0572015 4.33086 7.65692 -3.38146 -4.74414 -3.269 -0.0288657 -0.919693 -0.0207788 -3.53369 
106 0.0045521 4.33132 10.2106 -3.38807 -4.74637 -3.24483 -0.0127837 -0.918348 -0.0410253 -3.5337 
107 0.0482258 6.50405 8.9322 -2.77318 -4.35694 -2.8299 -0.0238094 -1.34726 -0.0313913 -3.53384 
108 2.10995 5.0074 8.93376 -2.70062 -3.60402 -2.69555 -0.309583 -0.801745 -0.0355722 -3.53337 
109 -0.0306611 6.50398 11.4858 -2.78619 -4.36582 -2.80851 -0.00469772 -1.34735 -0.0609546 -3.53381 
110 4.16315 3.4897 8.93576 -3.36374 -2.94913 -2.69047 -0.5086 -0.25208 0.739112 -3.53336 
111 2.06896 2.84014 10.2124 -3.34509 -3.59051 -2.99926 -0.403441 -0.345962 0.214289 -3.52982 
112 2.03413 2.86487 12.7669 -3.34009 -3.60634 -2.96408 -0.394467 -0.352131 0.204974 -3.52981 
113 2.04885 5.03226 11.4878 -2.70196 -3.6191 -2.66916 -0.293172 -0.804037 -0.0541145 -3.53336 
114 4.12014 3.53963 11.4898 -3.35716 -2.97281 -2.6632 -0.506613 -0.267861 0.73142 -3.53336 
115 -0.0479707 4.33107 12.7649 -3.40052 -4.74819 -3.2118 0.00350389 -0.917052 -0.0628124 -3.53369 
116 -0.100341 4.33011 15.32 -3.41931 -4.74897 -3.168 0.0197371 -0.915965 -0.08672 -3.53369 
117 -0.109372 6.50282 14.0401 -2.80661 -4.37615 -2.77989 0.0143245 -1.34798 -0.0929396 -3.53378 
118 1.98752 5.05619 14.0425 -2.70878 -3.63522 -2.6333 -0.274683 -0.807301 -0.0747643 -3.53335 
119 -0.187881 6.50056 16.5951 -2.83485 -4.38749 -2.74214 0.0329745 -1.34919 -0.128129 -3.53374 
120 4.07652 3.58888 14.0445 -3.35393 -2.99931 -2.62633 -0.50158 -0.2851 0.722429 -3.53335 
121 1.99905 2.88906 15.3222 -3.33812 -3.62267 -2.9168 -0.382959 -0.359377 0.194278 -3.5298 
122 1.96372 2.91267 17.8786 -3.33915 -3.63864 -2.8548 -0.368734 -0.368159 0.181662 -3.52977 
123 1.92598 5.07916 16.5981 -2.72149 -3.65185 -2.586 -0.254076 -0.811964 -0.098275 -3.53334 
124 4.03228 3.6374 16.6001 -3.35427 -3.02845 -2.57787 -0.493152 -0.304411 0.711574 -3.53334 
125 -0.15254 4.32843 17.8761 -3.44463 -4.74766 -3.11083 0.0355816 -0.915139 -0.113386 -3.53368 
126 -0.204551 4.32603 20.4334 -3.47608 -4.74252 -3.03687 0.0506432 -0.914509 -0.143413 -3.53368 
127 -0.266163 6.4972 19.1511 -2.87105 -4.39898 -2.69262 0.0509668 -1.35088 -0.167324 -3.53368 
128 1.86425 5.10115 19.1548 -2.7402 -3.66808 -2.52469 -0.231306 -0.818446 -0.125426 -3.53332 
129 -0.344197 6.49274 21.7085 -2.91487 -4.40901 -2.62775 0.0680255 -1.35279 -0.211202 -3.53362 
130 3.98744 3.68516 19.1568 -3.35807 -3.05975 -2.51537 -0.48096 -0.326454 0.69818 -3.53333 
131 1.92815 2.9357 20.4363 -3.34258 -3.65286 -2.77486 -0.351632 -0.378917 0.166558 -3.52974 
132 1.89235 2.95812 22.9957 -3.3469 -3.66301 -2.67326 -0.331575 -0.391976 0.148489 -3.52971 
133 1.80233 5.12212 21.7129 -2.76455 -3.68242 -2.44623 -0.206368 -0.827129 -0.156898 -3.5333 
134 3.942 3.73211 21.7149 -3.36473 -3.09217 -2.43587 -0.464689 -0.351856 0.681508 -3.5333 
135 -0.256366 4.32293 22.9924 -3.5124 -4.73075 -2.9419 0.0644641 -0.913909 -0.177171 -3.53367 
136 -0.307978 4.31917 25.5534 -3.55062 -4.7079 -2.82102 0.0765044 -0.913112 -0.21442 -3.53368 
137 -0.421958 6.48721 24.2675 -2.96502 -4.4147 -2.5429 0.0838758 -1.35448 -0.260012 -3.53355 
138 1.74024 5.14207 24.2728 -2.79322 -3.69237 -2.34701 -0.179406 -0.838295 -0.193013 -3.53326 
139 -0.499427 6.48069 26.8285 -3.01845 -4.41113 -2.43244 0.0981957 -1.35539 -0.313042 -3.53349 
140 3.89598 3.77823 24.2747 -3.3727 -3.12373 -2.33608 -0.444226 -0.381038 0.660905 -3.53327 
141 1.85634 2.97994 25.5572 -3.34906 -3.66534 -2.54603 -0.308718 -0.407349 0.127325 -3.52966 
142 1.82015 3.0012 28.1212 -3.3434 -3.65388 -2.38975 -0.283697 -0.42433 0.103777 -3.5296 
143 1.67801 5.16104 26.8349 -2.82325 -3.69395 -2.22328 -0.150918 -0.851939 -0.233259 -3.53322 
144 3.84941 3.82352 26.8367 -3.37888 -3.15076 -2.21251 -0.419926 -0.413822 0.636133 -3.53322 
145 -0.359385 4.31483 28.1169 -3.58486 -4.66722 -2.66936 0.0861414 -0.911882 -0.253707 -3.53372 
146 -0.410588 4.31005 30.6833 -3.60464 -4.59923 -2.4837 0.092764 -0.90997 -0.291695 -3.5338 
147 -0.576585 6.47334 29.3921 -3.06893 -4.39043 -2.29033 0.110513 -1.355 -0.367837 -3.53346 
148 1.61568 5.17912 29.3995 -2.84873 -3.68099 -2.0719 -0.122075 -0.867361 -0.275524 -3.53316 
149 -0.653423 6.46542 31.9587 -3.10522 -4.34079 -2.1119 0.120096 -1.35292 -0.419454 -3.53349 
150 3.80241 3.86802 29.4013 -3.37746 -3.16698 -2.06203 -0.392965 -0.448746 0.607986 -3.53316 
151 1.78386 3.02198 30.6881 -3.32057 -3.61984 -2.20284 -0.257947 -0.440929 0.0801134 -3.52956 
152 1.74763 3.04247 33.2583 -3.26722 -3.55205 -1.9874 -0.23385 -0.453591 0.0605451 -3.52954 
153 1.55335 5.19654 31.9672 -2.85914 -3.64448 -1.89136 -0.0950129 -0.882446 -0.315226 -3.5331 
154 3.75517 3.91188 31.9688 -3.35853 -3.16237 -1.88274 -0.365631 -0.482214 0.579144 -3.5331 
155 -0.461576 4.30504 33.253 -3.59413 -4.49263 -2.26524 0.0960755 -0.90696 -0.323204 -3.53396 
156 -0.512306 4.30001 35.8261 -3.53549 -4.33852 -2.02269 0.0965867 -0.901981 -0.343704 -3.53423 
157 -0.729915 6.45733 34.5287 -3.10961 -4.24678 -1.89749 0.126057 -1.34866 -0.460849 -3.53362 
158 1.49119 5.21365 34.5382 -2.8383 -3.57232 -1.6834 -0.0727102 -0.892998 -0.345393 -3.53307 
159 -0.805992 6.44942 37.1024 -3.06074 -4.09376 -1.65725 0.128039 -1.34094 -0.486373 -3.53389 
160 3.70798 3.95532 34.5397 -3.30695 -3.12296 -1.67575 -0.341119 -0.508399 0.554574 -3.53307 
161 1.71163 3.06286 35.8318 -3.16941 -3.44047 -1.75062 -0.214095 -0.45848 0.0495781 -3.5296 
162 1.67602 3.08325 38.4084 -3.02156 -3.28329 -1.50323 -0.199831 -0.455253 0.0467994 -3.52977 
163 1.42945 5.23083 37.1126 -2.76723 -3.45178 -1.45488 -0.0578693 -0.893787 -0.360121 -3.53313 
164 3.66124 3.99863 37.1139 -3.2046 -3.03443 -1.44768 -0.322243 -0.521929 0.539423 -3.53312 
165 -0.56269 4.29503 38.4024 -3.41983 -4.13925 -1.77118 0.0959147 -0.893877 -0.354739 -3.53458 
166 -0.612637 4.28991 40.9813 -3.25465 -3.91082 -1.52302 0.0962428 -0.882142 -0.365342 -3.53492 
167 -0.881524 6.44179 39.6793 -2.94695 -3.88134 -1.41098 0.127253 -1.32801 -0.499153 -3.53426 
168 1.36837 5.24827 39.69 -2.63539 -3.27816 -1.21763 -0.0508967 -0.883584 -0.362715 -3.5333 
169 -0.956404 6.43415 42.2586 -2.7766 -3.62954 -1.17626 0.12637 -1.30987 -0.512016 -3.53461 
170 3.61518 4.04195 39.6912 -3.04128 -2.89175 -1.21086 -0.309427 -0.524064 0.532275 -3.53329 
171 1.64081 3.10356 40.9875 -2.83207 -3.08937 -1.25292 -0.189408 -0.449214 0.0441607 -3.53 
172 1.6059 3.12365 43.5687 -2.61092 -2.86676 -0.997292 -0.180326 -0.446963 0.0332763 -3.53027 
173 1.30799 5.26581 42.2697 -2.44921 -3.06059 -0.981718 -0.0490002 -0.868934 -0.367647 -3.53355 
174 3.56975 4.0852 42.2708 -2.82439 -2.70334 -0.977032 -0.300508 -0.524665 0.522234 -3.53354 
175 -0.662129 4.28447 43.5622 -3.05119 -3.66354 -1.27754 0.0987017 -0.86764 -0.383977 -3.53523 
176 -0.711335 4.27865 46.1445 -2.82141 -3.39521 -1.0146 0.102485 -0.852481 -0.416207 -3.53549 
177 -1.0307 6.42627 44.8393 -2.55671 -3.34522 -0.959587 0.126731 -1.28884 -0.5303 -3.53496 
178 1.24817 5.2833 44.851 -2.21589 -2.80376 -0.74878 -0.0504621 -0.858344 -0.386494 -3.53386 
179 -1.10477 6.4185 47.4203 -2.29409 -3.01661 -0.772519 0.129178 -1.26941 -0.544371 -3.53529 
180 3.52475 4.1283 44.852 -2.55927 -2.47652 -0.752063 -0.292846 -0.532669 0.500672 -3.53383 
181 1.5711 3.14347 46.1516 -2.36272 -2.61789 -0.718916 -0.172205 -0.456133 0.00564477 -3.53054 
182 1.53627 3.16344 48.7364 -2.08833 -2.36124 -0.347566 -0.18339 -0.479111 -0.0350935 -3.53015 
183 1.18845 5.30075 47.4331 -1.9417 -2.50483 -0.517723 -0.0636367 -0.864536 -0.432077 -3.53412 
184 3.47991 4.1713 47.4338 -2.23968 -2.22071 -0.544306 -0.286558 -0.558736 0.456097 -3.53404 
185 -0.760746 4.27348 48.7284 -2.60137 -3.07336 -0.666323 0.0965658 -0.842756 -0.423413 -3.53517 
186 -0.811621 4.26877 51.3169 -1.98838 -2.35092 0.313301 0.0838912 -0.84222 -0.65285 -3.53805 
187 -1.17889 6.41384 50.0002 -2.05519 -2.54104 -0.330429 0.0856889 -1.27532 -0.621581 -3.53574 
188 1.12775 5.31799 50.0156 -1.56929 -2.079 -0.0208474 -0.110071 -0.944544 -0.598119 -3.53484 
189 -1.25707 6.40546 52.5877 -1.61244 -2.48693 0.64322 0.175828 -1.31631 -0.612999 -3.53281 
190 3.43505 4.21346 50.0156 -1.75956 -1.85325 -0.0396682 -0.309445 -0.668208 0.310765 -3.5349 
191 1.50027 3.18358 51.3264 -1.43166 -1.70128 0.657689 -0.172624 -0.548771 -0.132883 -3.53273 
192 1.46587 3.20964 53.9052 0.0266995 0.953986 -0.795892 0.566304 -0.560985 0.138966 -3.37565 
193 1.06597 5.33731 52.6041 -1.2492 -1.8986 0.441468 -0.236992 -0.801308 -0.410788 -3.52779 
194 3.38747 4.26008 52.6041 -1.41016 -1.71366 0.389799 -0.390654 -0.639411 0.587386 -3.52746 
195 -0.866323 4.2769 53.8949 -0.050853 -0.206136 -1.18043 0.0793782 -1.26166 1.02744 -3.38132 
196 1.3298 4.1174 -56.3442 5.06942 2.90558 1.60241 -1.25474 -0.273891 0.110265 -2.79034 
197 -1.33605 6.40133 55.1665 4.18003 2.79747 1.28996 0.319917 -1.5232 0.197891 -3.26107 
198 1.00488 5.36129 55.1754 5.64211 6.63187 2.70776 0.369876 -0.636454 -0.0325992 -3.15047 
199 1.98371 6.26223 -55.1334 6.93989 9.11552 2.92916 0.134185 -0.847907 -0.525669 -3.02309 
200 3.34328 4.30996 55.1754 5.53065 7.3577 2.86913 0.118698 -0.278615 0.562647 -3.15115 
201 2.87095 2.09325 -56.362 4.04253 6.0065 1.88102 -3.16453 0.252651 0.341796 -2.79939 
202 2.84551 2.1252 -53.8874 0.165023 0.763302 -3.02649 -0.982102 -0.732812 -0.162362 -3.51266 
203 3.53831 4.21674 -55.1525 6.03166 6.27392 1.75935 0.302436 -1.2195 -0.0444729 -3.1433 
204 5.07312 2.13635 -55.1525 6.04997 7.03887 2.00314 0.446063 -0.528117 0.0805399 -3.14511 
205 1.29262 4.16451 -53.8815 0.861251 -0.348233 -3.6751 -0.408867 -0.57388 0.839001 -3.51412 
206 1.24176 4.17585 -51.3147 -1.28718 -1.91133 -0.37772 -0.214933 -0.880924 0.220674 -3.53903 
207 1.90264 6.26187 -52.5941 -0.918003 -1.45678 -0.573025 -0.184183 -1.16805 0.820094 -3.52792 
208 3.4607 4.22944 -52.6036 -0.749004 -0.925874 0.0953555 -0.677521 -0.496108 0.191351 -3.53019 
209 1.82403 6.27282 -50.0101 -1.64471 -2.33001 -0.269884 -0.19763 -1.27807 0.428694 -3.53673 
210 5.01221 2.17771 -52.6036 -1.34194 -0.348608 0.054531 -0.502576 0.0191647 0.991485 -3.52952 
211 2.80522 2.14769 -51.32 -1.10374 -0.94698 -0.113815 -0.278225 -0.333558 0.262308 -3.53415 
212 2.77239 2.17446 -48.7405 -1.97241 -1.83903 -0.549677 -0.290825 -0.220126 0.334078 -3.53088 
213 3.40036 4.25787 -50.02 -1.43263 -1.65486 -0.142722 -0.409015 -0.70623 0.285017 -3.53497 
214 4.971 2.23184 -50.02 -1.84467 -1.27447 -0.11558 -0.296596 0.023249 0.834697 -3.53501 
215 1.1898 4.18023 -48.7356 -2.18163 -2.76058 -0.795666 -0.179503 -0.843736 0.274346 -3.5364 
216 1.14011 4.18595 -46.1542 -2.64098 -3.19352 -0.982892 -0.16098 -0.828358 0.394981 -3.53605 
217 1.7489 6.27832 -47.4307 -2.10405 -2.83542 -0.684416 -0.211911 -1.23677 0.539527 -3.53589 
218 3.34531 4.28723 -47.4412 -1.90077 -2.20991 -0.568135 -0.300022 -0.634941 0.333362 -3.53415 
219 1.67517 6.28985 -44.8497 -2.47404 -3.19191 -0.871109 -0.197492 -1.24015 0.599302 -3.53535 
220 4.93507 2.28424 -47.4404 -2.32454 -1.78945 -0.544347 -0.210737 0.109114 0.86281 -3.5342 
221 2.74231 2.20147 -46.1595 -2.36855 -2.27 -0.742952 -0.228918 -0.15791 0.389546 -3.53075 
222 2.71409 2.22991 -43.5778 -2.68193 -2.59277 -0.953575 -0.211543 -0.146327 0.410377 -3.53038 
223 3.29199 4.31921 -44.8606 -2.23789 -2.57444 -0.72284 -0.258381 -0.620855 0.369157 -3.53393 
224 4.90234 2.33713 -44.8596 -2.66134 -2.14405 -0.725642 -0.175283 0.146591 0.894486 -3.53393 
225 1.09113 4.19424 -43.5724 -2.98065 -3.51313 -1.21027 -0.146942 -0.836371 0.421542 -3.53554 
226 1.04202 4.20331 -40.9914 -3.24158 -3.78825 -1.45113 -0.143824 -0.849753 0.428829 -3.5351 
227 1.6016 6.30314 -42.2688 -2.75747 -3.49785 -1.09764 -0.196065 -1.25804 0.615759 -3.53485 
228 3.23957 4.35272 -42.2798 -2.51227 -2.87075 -0.922232 -0.240504 -0.62324 0.387226 -3.53361 
229 1.52752 6.31719 -39.6891 -2.96923 -3.76497 -1.34123 -0.202538 -1.27761 0.61995 -3.53439 
230 4.8711 2.39097 -42.2788 -2.94556 -2.42625 -0.931097 -0.163707 0.158342 0.919923 -3.5336 
231 2.68638 2.25914 -40.9967 -2.93877 -2.85443 -1.18307 -0.208021 -0.144455 0.424698 -3.53007 
232 2.65873 2.28903 -38.4172 -3.15295 -3.06966 -1.42466 -0.212306 -0.144109 0.436404 -3.52982 
233 3.18733 4.38733 -39.7 -2.7304 -3.1108 -1.1455 -0.234509 -0.628548 0.397859 -3.53334 
234 4.84041 2.44582 -39.6989 -3.1831 -2.64424 -1.1546 -0.16377 0.162934 0.941885 -3.53333 
235 0.99248 4.21272 -38.4121 -3.44213 -4.03266 -1.70189 -0.148359 -0.862746 0.430383 -3.53468 
236 0.942472 4.22238 -35.8351 -3.58388 -4.24297 -1.95715 -0.157613 -0.873545 0.425301 -3.53431 
237 1.45277 6.33179 -37.1116 -3.11221 -3.98857 -1.59313 -0.213098 -1.29414 0.615189 -3.53399 
238 3.13503 4.42293 -37.1221 -2.89255 -3.29454 -1.3789 -0.237543 -0.635602 0.400143 -3.53315 
239 1.37738 6.34695 -34.5372 -3.18726 -4.15747 -1.83954 -0.223457 -1.30711 0.596559 -3.53368 
240 4.80999 2.50168 -37.121 -3.37104 -2.80085 -1.38695 -0.17372 0.162192 0.955985 -3.53315 
241 2.63106 2.31952 -35.84 -3.32348 -3.23877 -1.6706 -0.223786 -0.146693 0.442246 -3.52964 
242 2.60332 2.35052 -33.2657 -3.4458 -3.35957 -1.91053 -0.242239 -0.155492 0.438371 -3.52955 
243 3.08259 4.4594 -34.5471 -2.99649 -3.42059 -1.60881 -0.248921 -0.647598 0.388849 -3.53307 
244 4.77975 2.55844 -34.5459 -3.5041 -2.89806 -1.61617 -0.193672 0.151175 0.957168 -3.53306 
245 0.892057 4.23232 -33.2612 -3.66618 -4.41018 -2.20545 -0.168205 -0.88233 0.409549 -3.534 
246 0.841306 4.24241 -30.6907 -3.69644 -4.53153 -2.43327 -0.17713 -0.889833 0.382108 -3.5338 
247 1.30148 6.36252 -31.9663 -3.20431 -4.26965 -2.0642 -0.230547 -1.31749 0.561774 -3.5335 
248 3.0299 4.49645 -31.9754 -3.04694 -3.49613 -1.82256 -0.266958 -0.66541 0.362838 -3.53307 
249 1.22513 6.37815 -29.399 -3.18117 -4.33479 -2.25609 -0.233313 -1.32577 0.514425 -3.53342 
250 4.74952 2.6158 -31.974 -3.58478 -2.94521 -1.83005 -0.222051 0.127517 0.945306 -3.53306 
251 2.57544 2.38186 -30.6946 -3.52138 -3.43622 -2.13324 -0.265888 -0.171064 0.424576 -3.52954 
252 2.54728 2.41329 -28.1268 -3.55876 -3.47918 -2.33032 -0.291801 -0.190935 0.404227 -3.52958 
253 2.9768 4.53366 -29.4069 -3.05634 -3.53515 -2.01189 -0.288655 -0.686517 0.326638 -3.53312 
254 4.71902 2.67343 -29.4055 -3.62353 -2.95755 -2.01997 -0.255458 0.0940791 0.924851 -3.5331 
255 0.790262 4.25246 -28.1235 -3.68932 -4.61293 -2.63101 -0.182588 -0.896382 0.346171 -3.53368 
256 0.738942 4.26223 -25.5594 -3.65999 -4.6641 -2.7952 -0.183996 -0.901915 0.306408 -3.53362 
257 1.14836 6.39346 -26.8348 -3.1354 -4.36662 -2.41195 -0.231898 -1.33192 0.460668 -3.53343 
258 2.92312 4.57063 -26.8416 -3.03887 -3.55134 -2.17345 -0.310747 -0.70779 0.286293 -3.53318 
259 1.07118 6.4081 -24.2734 -3.08026 -4.37751 -2.53417 -0.226767 -1.33609 0.405966 -3.53347 
260 4.68796 2.73103 -26.84 -3.6328 -2.94965 -2.18196 -0.290234 0.0558646 0.900805 -3.53316 
261 2.5187 2.4446 -25.562 -3.56898 -3.50001 -2.49784 -0.317215 -0.212021 0.381339 -3.52963 
262 2.48961 2.47563 -22.9998 -3.56196 -3.50811 -2.63578 -0.340265 -0.232079 0.358821 -3.52968 
263 2.86878 4.60708 -24.279 -3.0064 -3.55491 -2.30742 -0.33067 -0.727053 0.246386 -3.53323 
264 4.65611 2.7884 -24.2773 -3.62334 -2.9324 -2.31577 -0.323682 0.0172596 0.876752 -3.53321 
265 0.68736 4.27153 -22.998 -3.62031 -4.69455 -2.92711 -0.181536 -0.906359 0.266681 -3.5336 
266 0.635537 4.28025 -20.4386 -3.57812 -4.71181 -3.03061 -0.175748 -0.909789 0.229356 -3.5336 
267 0.993648 6.42187 -21.7142 -3.02436 -4.37666 -2.62778 -0.21844 -1.33872 0.35386 -3.53354 
268 2.81372 4.64283 -21.7187 -2.9674 -3.55254 -2.41596 -0.346944 -0.743294 0.209471 -3.53327 
269 0.915789 6.43463 -19.1567 -2.9726 -4.37019 -2.69837 -0.207472 -1.34038 0.306076 -3.5336 
270 4.62334 2.84541 -21.7169 -3.6032 -2.9128 -2.42354 -0.354295 -0.0189386 0.854708 -3.53325 
271 2.45997 2.50631 -20.4399 -3.54517 -3.50996 -2.74653 -0.360031 -0.24993 0.338243 -3.52972 
272 2.42979 2.53657 -17.8819 -3.52369 -3.50958 -2.83371 -0.376284 -0.265204 0.320201 -3.52976 
273 2.75797 4.67779 -19.1603 -2.92728 -3.54827 -2.50222 -0.35904 -0.756355 0.176552 -3.5333 
274 4.58961 2.90197 -19.1585 -3.57787 -2.8949 -2.50863 -0.381481 -0.0514147 0.835533 -3.53328 
275 0.583502 4.28831 -17.8811 -3.53801 -4.72122 -3.11038 -0.167275 -0.912407 0.1955 -3.53361 
276 0.531285 4.29568 -15.3249 -3.50234 -4.72627 -3.17096 -0.156751 -0.914458 0.165311 -3.53362 
277 0.837649 6.44631 -16.6007 -2.92725 -4.36185 -2.75099 -0.194435 -1.34155 0.263075 -3.53367 
278 2.70156 4.71192 -16.6034 -2.88915 -3.54435 -2.56963 -0.367054 -0.766559 0.147695 -3.53332 
279 0.759265 6.4569 -14.0457 -2.88896 -4.35377 -2.78981 -0.179882 -1.34258 0.224587 -3.53372 
280 4.55493 2.95804 -16.6016 -3.55081 -2.88071 -2.57471 -0.405199 -0.0798846 0.819369 -3.53331 
281 2.39908 2.56639 -15.3253 -3.50074 -3.50925 -2.90115 -0.389206 -0.278017 0.304714 -3.52978 
282 2.36787 2.59578 -12.7698 -3.47817 -3.51009 -2.95244 -0.399171 -0.288729 0.291504 -3.5298 
283 2.64452 4.7452 -14.0477 -2.85453 -3.54191 -2.62147 -0.371413 -0.774428 0.122481 -3.53334 
284 4.51931 3.01361 -14.0459 -3.52407 -2.87096 -2.62521 -0.425701 -0.104657 0.805966 -3.53333 
285 0.478915 4.30235 -12.7698 -3.47201 -4.72911 -3.21627 -0.144733 -0.91617 0.138495 -3.53364 
286 0.426419 4.30832 -10.2155 -3.44702 -4.73099 -3.24944 -0.131687 -0.917702 0.114529 -3.53365 
287 0.680671 6.46639 -11.4915 -2.85738 -4.34702 -2.81803 -0.164296 -1.34368 0.189983 -3.53376 
288 2.58691 4.77764 -11.493 -2.82397 -3.54139 -2.66061 -0.372662 -0.780513 0.100291 -3.53335 
289 0.601895 6.47481 -8.93795 -2.83168 -4.34204 -2.83803 -0.148052 -1.34489 0.158503 -3.53379 
290 4.48281 3.06867 -11.4911 -3.49872 -2.86571 -2.6631 -0.443353 -0.126313 0.794892 -3.53334 
291 2.3362 2.62473 -10.2152 -3.45693 -3.5126 -2.99063 -0.406615 -0.297779 0.280171 -3.52982 
292 2.30409 2.65324 -7.66126 -3.43739 -3.51687 -3.01817 -0.411952 -0.305584 0.27029 -3.52983 
293 2.52877 4.80926 -8.93889 -2.79737 -3.54291 -2.68943 -0.371333 -0.785285 0.0804641 -3.53336 
294 4.44547 3.12321 -8.93701 -3.47522 -2.86468 -2.69076 -0.458528 -0.145505 0.785656 -3.53335 
295 0.373817 4.31359 -7.66172 -3.42688 -4.73256 -3.27289 -0.117972 -0.919114 0.0928072 -3.53366 
296 0.321128 4.31818 -5.10839 -3.41089 -4.73413 -3.28834 -0.103845 -0.920355 0.0727249 -3.53366 
297 0.522965 6.48215 -6.3848 -2.81088 -4.33895 -2.85148 -0.131395 -1.3461 0.129378 -3.53382 
298 2.47014 4.84005 -6.38532 -2.77436 -3.54639 -2.70975 -0.367863 -0.789102 0.0623802 -3.53336 
299 0.443909 6.48843 -3.83193 -2.79417 -4.33769 -2.85948 -0.11443 -1.34714 0.10189 -3.53383 
300 4.40731 3.17723 -6.38343 -3.45366 -2.86746 -2.71 -0.471547 -0.162844 0.777781 -3.53336 
301 2.27157 2.68131 -5.10773 -3.41955 -3.52284 -3.03687 -0.415519 -0.312486 0.261461 -3.52984 
302 2.23866 2.70894 -2.55449 -3.40327 -3.53041 -3.04802 -0.417543 -0.318738 0.253337 -3.52984 
303 2.41105 4.87003 -3.83208 -2.7545 -3.55171 -2.7229 -0.362551 -0.792196 0.0454977 -3.53337 
304 4.36839 3.23072 -3.83018 -3.43395 -2.87366 -2.72212 -0.482631 -0.178853 0.770839 -3.53336 
305 0.26837 4.32208 -2.55532 -3.39839 -4.73582 -3.29691 -0.0894456 -0.921285 0.0537182 -3.53367 
306 0.364765 6.49367 -1.27923 -2.78111 -4.33817 -2.86268 -0.0971486 -1.34782 0.0753964 -3.53385 
307 2.35153 4.89919 -1.27904 -2.73746 -3.5588 -2.72968 -0.35554 -0.794708 0.0293582 -3.53337 
308 4.32872 3.28367 -1.27713 -3.41601 -2.88298 -2.72794 -0.49188 -0.193957 0.764469 -3.53336 
309 2.43655 7.09145 -0.00287775 -2.21271 -3.35734 -2.40118 -0.318119 -1.19879 -0.184319 -3.53292 
310 0.43481 8.66873 -0.00326055 -2.246 -4.01199 -2.4948 -0.100081 -1.73398 0.0853961 -3.53361 