ITEM: TIMESTEP
0
ITEM: NUMBER OF ATOMS
37664
ITEM: BOX BOUNDS ff ff ff
-100 100
-100 100
-156.15 156.15
ITEM: ATOMS id x y z v_peratom_sxx v_peratom_syy v_peratom_szz v_peratom_sxy v_peratom_sxz v_peratom_syz c_atomPE 
1 -0.00340312 -0.00162568 -0.000370748 -5.1811 -5.16889 -9.54282 0.000276715 -0.00831284 -0.0469128 -3.51524 
2 -0.00362484 -0.00136837 2.55279 -5.17891 -5.16751 -9.53891 -0.000774512 -0.00676596 -0.0462016 -3.51526 
3 -0.00382667 -0.001095 5.10608 -5.17239 -5.16211 -9.52491 -0.00189771 -0.00462742 -0.0452313 -3.51532 
4 -0.004006 -0.000807974 7.65962 -5.16102 -5.15225 -9.49984 -0.00307816 -0.00179011 -0.0440001 -3.51544 
5 -0.0041572 -0.000511789 10.2136 -5.14401 -5.13717 -9.46204 -0.00426875 0.00172784 -0.0424662 -3.51561 
6 -0.00427229 -0.000212181 12.7681 -5.12028 -5.11574 -9.40922 -0.00539815 0.00575659 -0.040569 -3.51586 
7 -0.00434276 8.48872e-05 15.3235 -5.08835 -5.08631 -9.33828 -0.00639024 0.010007 -0.0382677 -3.51619 
8 -0.00436151 0.000373835 17.88 -5.04608 -5.04661 -9.24524 -0.00718395 0.0141454 -0.0355773 -3.51661 
9 -0.00432425 0.000649416 20.4379 -4.99051 -4.99349 -9.12519 -0.00774456 0.0178737 -0.0325853 -3.51716 
10 -0.00422986 0.000906172 22.9975 -4.91752 -4.92272 -8.97238 -0.00806538 0.0209859 -0.0294472 -3.51785 
11 -0.00407979 0.00113776 25.5594 -4.82176 -4.82884 -8.78093 -0.00816335 0.0233915 -0.0263666 -3.5187 
12 -0.00387704 0.00133652 28.1238 -4.69686 -4.70545 -8.54651 -0.00807236 0.025109 -0.0235654 -3.51973 
13 -0.00362502 0.0014934 30.6913 -4.537 -4.54668 -8.2695 -0.00783535 0.0262393 -0.0212466 -3.52092 
14 -0.00332656 0.00159836 33.262 -4.34058 -4.35097 -7.95859 -0.00749488 0.0269272 -0.0195588 -3.52221 
15 -0.00298326 0.00164066 35.8359 -4.1155 -4.12621 -7.63127 -0.0070839 0.0273258 -0.0185809 -3.52348 
16 -0.00259505 0.00160891 38.4127 -3.87778 -3.88849 -7.30587 -0.00661962 0.027568 -0.018328 -3.52458 
17 -0.00215959 0.00149022 40.9918 -3.63902 -3.6494 -6.98883 -0.00609869 0.0277523 -0.0187854 -3.52547 
18 -0.00166931 0.00126747 43.5732 -3.40021 -3.4099 -6.66738 -0.0054819 0.0280143 -0.0199804 -3.52619 
19 -0.0011067 0.000914523 46.157 -3.13625 -3.14462 -6.30464 -0.00463053 0.0285246 -0.021991 -3.52694 
20 -0.000452375 0.000391494 48.7436 -2.75374 -2.75843 -5.86504 -0.00261607 0.0285737 -0.0247321 -3.52781 
21 5.95933e-07 -4.11185e-08 51.3317 -1.92324 -1.92288 -4.92087 0.000199274 -0.00147392 0.00131153 -3.53204 
22 4.01304e-07 -1.42881e-06 53.9138 -0.851899 -0.851911 -8.9178 -1.12411e-06 -2.60793e-05 -7.28483e-05 -3.48169 
23 8.71386e-07 -1.98378e-06 56.3885 1.68559 1.6856 1.87689 -1.50509e-05 2.35494e-05 -5.86905e-07 -2.55581 
24 -1.23087e-07 -1.12453e-06 -53.8876 -2.60698 -2.60701 -6.54964 -1.43303e-05 7.39119e-06 -3.37885e-05 -3.40183 
25 1.02659e-07 -1.55837e-06 -51.3239 -2.07927 -2.07935 -5.58091 -0.000521616 0.000556753 0.00244278 -3.52873 
26 -0.000124799 -0.000689874 -48.7463 -2.69761 -2.69571 -6.15312 0.00688887 -0.00803316 -0.0431311 -3.52637 
27 -0.000259289 -0.00163716 -46.1647 -3.02509 -3.02156 -6.35455 0.0122687 -0.00577557 -0.0395938 -3.52675 
28 -0.000331991 -0.00233358 -43.5824 -3.30656 -3.30133 -6.61518 0.0137979 -0.00232048 -0.036487 -3.52632 
29 -0.00034856 -0.00283899 -41.001 -3.56199 -3.55478 -6.90311 0.0142445 0.000735975 -0.0341373 -3.52572 
30 -0.000333875 -0.00319272 -38.4213 -3.81213 -3.80287 -7.21104 0.0140618 0.00305872 -0.0324358 -3.52488 
31 -0.000312766 -0.00342077 -35.8438 -4.05831 -4.04709 -7.53513 0.0134427 0.004387 -0.0313491 -3.52383 
32 -0.000308824 -0.00354394 -33.2691 -4.29127 -4.27834 -7.86446 0.0125295 0.00452591 -0.0309374 -3.5226 
33 -0.000342898 -0.00358162 -30.6974 -4.49806 -4.48379 -8.18162 0.011458 0.00343935 -0.0312681 -3.52131 
34 -0.000430523 -0.0035524 -28.1289 -4.67021 -4.65502 -8.46964 0.0103492 0.00130704 -0.0323496 -3.52009 
35 -0.000579523 -0.00347322 -25.5634 -4.80671 -4.79101 -8.718 0.00928985 -0.00149264 -0.0340916 -3.51901 
36 -0.000788973 -0.00335819 -23.0008 -4.91152 -4.89567 -8.92376 0.0083195 -0.00447318 -0.0363008 -3.5181 
37 -0.00105002 -0.00321788 -20.4404 -4.99042 -4.97467 -9.08924 0.00743269 -0.00717136 -0.0387228 -3.51735 
38 -0.00134843 -0.00305938 -17.882 -5.04909 -5.03361 -9.21943 0.0065953 -0.00925772 -0.0411017 -3.51676 
39 -0.00166795 -0.00288708 -15.3251 -5.09236 -5.07725 -9.32001 0.00576707 -0.01059 -0.0432288 -3.51629 
40 -0.00199323 -0.00270356 -12.7694 -5.12398 -5.10929 -9.39633 0.00491967 -0.0112016 -0.0449659 -3.51594 
41 -0.00231191 -0.00251012 -10.2146 -5.14676 -5.13252 -9.45296 0.00404307 -0.01124 -0.0462435 -3.51567 
42 -0.00261547 -0.00230695 -7.66053 -5.16273 -5.14894 -9.49356 0.00314029 -0.0108841 -0.0470453 -3.51548 
43 -0.0028992 -0.00209312 -5.10689 -5.17326 -5.15994 -9.52092 0.00221611 -0.0102678 -0.0473921 -3.51535 
44 -0.00316159 -0.00186676 -2.55355 -5.17924 -5.16642 -9.53696 0.00126675 -0.00943221 -0.0473286 -3.51527 
45 0.0927335 2.15861 1.27494 -4.05272 -5.13339 -3.8375 -0.0521977 -0.443066 -0.00499689 -3.52909 
46 0.0662773 2.15985 3.8281 -4.04924 -5.13336 -3.82979 -0.040533 -0.442519 -0.0143445 -3.5291 
47 0.0398449 2.16076 6.38145 -4.04738 -5.13137 -3.81377 -0.0287432 -0.441461 -0.0239099 -3.52912 
48 0.0134571 2.16134 8.93513 -4.04743 -5.1271 -3.7885 -0.0168142 -0.439936 -0.033928 -3.52914 
49 -0.0128639 2.16158 11.4893 -4.04977 -5.12 -3.75252 -0.00477349 -0.438089 -0.0446476 -3.52918 
50 -0.0390975 2.16147 14.0442 -4.05472 -5.10921 -3.70381 0.00725985 -0.436114 -0.0563688 -3.52922 
51 -0.0652267 2.161 16.6001 -4.06228 -5.09339 -3.63967 0.0190491 -0.434189 -0.0694609 -3.52927 
52 -0.0912397 2.16019 19.1572 -4.0719 -5.07055 -3.55662 0.0302395 -0.432427 -0.0843368 -3.52933 
53 -0.11713 2.15903 21.7158 -4.08213 -5.03774 -3.45044 0.040371 -0.430858 -0.101357 -3.52941 
54 -0.142896 2.15753 24.2763 -4.09003 -4.99074 -3.31638 0.0489057 -0.429431 -0.120619 -3.52952 
55 -0.168538 2.15572 26.8393 -4.09019 -4.92358 -3.15001 0.0552905 -0.428024 -0.141575 -3.52966 
56 -0.19406 2.15365 29.405 -4.07363 -4.82858 -2.94887 0.0591074 -0.426449 -0.162504 -3.52985 
57 -0.219459 2.15142 31.9738 -4.02749 -4.69767 -2.71508 0.0603577 -0.424444 -0.180227 -3.53012 
58 -0.244717 2.1491 34.546 -3.93831 -4.52646 -2.4576 0.0597923 -0.421655 -0.191255 -3.53047 
59 -0.269796 2.14673 37.1213 -3.80077 -4.32035 -2.19065 0.0588977 -0.417645 -0.195355 -3.53088 
60 -0.294646 2.14424 39.6994 -3.6233 -4.09394 -1.92561 0.0591731 -0.412071 -0.197634 -3.53128 
61 -0.31924 2.14151 42.2797 -3.41788 -3.85791 -1.66268 0.0612863 -0.40512 -0.204288 -3.53165 
62 -0.34361 2.13847 44.862 -3.19113 -3.60895 -1.39017 0.0644813 -0.397368 -0.222066 -3.53193 
63 -0.367912 2.1353 47.4464 -2.91361 -3.29699 -1.10417 0.0655425 -0.390976 -0.243152 -3.53223 
64 -0.392512 2.13371 50.032 -2.43051 -2.80165 -0.49113 0.060749 -0.4114 -0.208401 -3.53325 
65 -0.418483 2.1304 52.6263 -1.76576 -2.00552 -0.561399 0.0454964 -0.308968 -0.729915 -3.52457 
66 -0.44812 2.14653 55.1778 6.97659 7.73843 2.43091 0.0330134 -0.597322 1.77022 -3.02528 
67 0.649859 2.05055 -55.162 1.38943 0.842376 -0.678404 -0.188253 -0.0991972 1.20761 -3.26036 
68 0.633027 2.08274 -52.6122 -1.112 -2.21872 -0.457742 -0.374495 -0.489287 -0.161391 -3.53567 
69 0.607028 2.08678 -50.0319 -2.00599 -2.55768 -0.878814 -0.167002 -0.42716 0.07456 -3.53397 
70 0.581516 2.08791 -47.4534 -2.64055 -3.07386 -1.21576 -0.122995 -0.397922 0.144813 -3.5329 
71 0.556879 2.09117 -44.8714 -3.06269 -3.44342 -1.37413 -0.100192 -0.392775 0.190102 -3.53225 
72 0.532401 2.0953 -42.2896 -3.36241 -3.72891 -1.60262 -0.090113 -0.396822 0.202891 -3.53182 
73 0.507791 2.09971 -39.7091 -3.60681 -3.98477 -1.85279 -0.0879048 -0.402712 0.209648 -3.5314 
74 0.48295 2.10426 -37.1304 -3.80974 -4.22251 -2.11576 -0.0916294 -0.408448 0.213666 -3.53096 
75 0.457873 2.10896 -34.5544 -3.96798 -4.43702 -2.3844 -0.0996101 -0.413616 0.21265 -3.53054 
76 0.432587 2.11378 -31.9814 -4.07721 -4.61853 -2.64674 -0.109544 -0.418429 0.203933 -3.53017 
77 0.407118 2.11866 -29.4116 -4.14071 -4.76183 -2.88918 -0.118923 -0.423053 0.187549 -3.52987 
78 0.381483 2.12351 -26.8451 -4.16881 -4.8691 -3.10178 -0.125882 -0.42739 0.166131 -3.52964 
79 0.355688 2.1282 -24.2814 -4.17339 -4.94673 -3.28035 -0.129553 -0.431236 0.142802 -3.52948 
80 0.329745 2.13267 -21.7203 -4.16431 -5.00198 -3.4255 -0.129866 -0.434441 0.119887 -3.52936 
81 0.303672 2.13686 -19.1613 -4.14855 -5.04114 -3.54062 -0.127185 -0.436956 0.0986995 -3.52927 
82 0.27749 2.14074 -16.6039 -4.13058 -5.06904 -3.63015 -0.122029 -0.438833 0.0797733 -3.52921 
83 0.251222 2.14429 -14.0478 -4.11303 -5.08912 -3.69855 -0.114921 -0.44019 0.0631547 -3.52917 
84 0.224889 2.1475 -11.4928 -4.0973 -5.10376 -3.74978 -0.106319 -0.441171 0.0486279 -3.52913 
85 0.198509 2.15039 -8.93849 -4.08394 -5.11451 -3.78711 -0.0966088 -0.441912 0.0358587 -3.52911 
86 0.172093 2.15293 -6.38473 -4.07305 -5.12238 -3.81306 -0.0861092 -0.442496 0.0244746 -3.5291 
87 0.145653 2.15515 -3.83134 -4.06442 -5.12796 -3.82943 -0.0750834 -0.442935 0.014103 -3.52909 
88 0.119196 2.15704 -1.27816 -4.05773 -5.13158 -3.83739 -0.0637347 -0.443165 0.00438841 -3.52909 
89 0.215564 4.32531 -0.00238646 -3.38879 -4.73777 -3.29921 -0.074805 -0.921352 0.0351321 -3.53368 
90 0.285589 6.49785 1.27341 -2.77224 -4.34049 -2.86147 -0.0793409 -1.34778 0.0492759 -3.53385 
91 2.20538 2.73613 -0.00137893 -3.38822 -3.53963 -3.05241 -0.418128 -0.324367 0.245589 -3.52984 
92 2.17176 2.76285 2.55172 -3.37499 -3.55029 -3.05008 -0.417095 -0.329798 0.238081 -3.52984 
93 2.29164 4.92752 1.27393 -2.72326 -3.5678 -2.73048 -0.346719 -0.796512 0.0136136 -3.53337 
94 4.28834 3.33607 1.27586 -3.39983 -2.8954 -2.72791 -0.499215 -0.208389 0.75836 -3.53337 
95 0.162763 4.32785 2.55055 -3.38306 -4.73984 -3.29555 -0.0597559 -0.921286 0.0168612 -3.53368 
96 0.109979 4.3297 5.10361 -3.38082 -4.74205 -3.28571 -0.044385 -0.920686 -0.00166179 -3.53369 
97 0.206421 6.50098 3.82613 -2.7678 -4.34436 -2.85584 -0.0611913 -1.34774 0.0231448 -3.53385 
98 2.23139 4.95501 3.82697 -2.71238 -3.57834 -2.72535 -0.336196 -0.798267 -0.00219746 -3.53337 
99 0.127303 6.50305 6.37902 -2.76835 -4.3499 -2.84556 -0.042629 -1.34751 -0.00357236 -3.53385 
100 4.24728 3.38789 3.82893 -3.38575 -2.91055 -2.72193 -0.504565 -0.222703 0.752284 -3.53337 
101 2.13781 2.78911 5.10496 -3.36333 -3.56241 -3.04095 -0.414423 -0.335066 0.230525 -3.52984 
102 2.10355 2.81487 7.65846 -3.35352 -3.57594 -3.02437 -0.409899 -0.340363 0.222686 -3.52983 
103 2.17084 4.98164 6.3802 -2.70496 -3.59051 -2.71396 -0.323819 -0.799917 -0.0184379 -3.53337 
104 4.20555 3.4391 6.38218 -3.37383 -2.92851 -2.70972 -0.507745 -0.237124 0.745967 -3.53336 
105 0.0572488 4.33086 7.65693 -3.38274 -4.74435 -3.26917 -0.0286567 -0.919668 -0.0208275 -3.53369 
106 0.0046088 4.33131 10.2106 -3.3896 -4.74657 -3.24507 -0.0126091 -0.918442 -0.0410565 -3.53369 
107 0.0482825 6.50405 8.93221 -2.77475 -4.35714 -2.83016 -0.0237383 -1.34735 -0.0314112 -3.53384 
108 2.10999 5.0074 8.93376 -2.70165 -3.60421 -2.69562 -0.309487 -0.801748 -0.0355684 -3.53336 
109 -0.0306001 6.50398 11.4858 -2.78781 -4.366 -2.80879 -0.00469268 -1.34751 -0.0609777 -3.53381 
110 4.16318 3.4897 8.93576 -3.36443 -2.94932 -2.69054 -0.508501 -0.252027 0.739131 -3.53336 
111 2.069 2.84013 10.2124 -3.34599 -3.59074 -2.99928 -0.403286 -0.345959 0.214279 -3.52982 
112 2.03417 2.86487 12.7669 -3.34114 -3.60654 -2.96414 -0.394357 -0.352204 0.204941 -3.52981 
113 2.0489 5.03226 11.4878 -2.70312 -3.61926 -2.66928 -0.29313 -0.804122 -0.0541455 -3.53336 
114 4.12018 3.53963 11.4898 -3.35797 -2.97299 -2.66329 -0.506544 -0.267858 0.731431 -3.53336 
115 -0.0479093 4.33107 12.7649 -3.40215 -4.74836 -3.21208 0.00361778 -0.917233 -0.062839 -3.53369 
116 -0.100279 4.3301 15.32 -3.42092 -4.74912 -3.16829 0.0197836 -0.916206 -0.0867502 -3.53369 
117 -0.109311 6.50282 14.0401 -2.80818 -4.37631 -2.78017 0.014268 -1.34818 -0.0929698 -3.53378 
118 1.98757 5.05619 14.0425 -2.70997 -3.63536 -2.63347 -0.274695 -0.807449 -0.0748312 -3.53335 
119 -0.187823 6.50056 16.5951 -2.83627 -4.38764 -2.7424 0.0328694 -1.34941 -0.128167 -3.53374 
120 4.07656 3.58888 14.0445 -3.35481 -2.99947 -2.62644 -0.501551 -0.285148 0.722425 -3.53335 
121 1.99909 2.88905 15.3222 -3.33924 -3.62283 -2.9169 -0.382905 -0.359517 0.194217 -3.52979 
122 1.96377 2.91267 17.8786 -3.34025 -3.63877 -2.85494 -0.368735 -0.36835 0.181574 -3.52977 
123 1.92603 5.07917 16.5981 -2.72263 -3.65196 -2.5862 -0.254136 -0.812157 -0.0983743 -3.53334 
124 4.03232 3.6374 16.6001 -3.35516 -3.02858 -2.57801 -0.493165 -0.304505 0.711553 -3.53334 
125 -0.15248 4.32842 17.8761 -3.44612 -4.74779 -3.11112 0.0355673 -0.915416 -0.113424 -3.53368 
126 -0.204498 4.32603 20.4334 -3.47739 -4.74264 -3.03716 0.0505812 -0.9148 -0.14346 -3.53368 
127 -0.266112 6.4972 19.1512 -2.87227 -4.39911 -2.69286 0.0508292 -1.35112 -0.167371 -3.53368 
128 1.86429 5.10115 19.1548 -2.74123 -3.66817 -2.52493 -0.231404 -0.818664 -0.125552 -3.53332 
129 -0.344153 6.49274 21.7085 -2.91585 -4.40913 -2.62797 0.0678722 -1.35302 -0.211256 -3.53362 
130 3.98748 3.68516 19.1568 -3.35891 -3.05986 -2.51552 -0.481011 -0.326582 0.698142 -3.53333 
131 1.92819 2.9357 20.4363 -3.3436 -3.65296 -2.77504 -0.351681 -0.37914 0.166447 -3.52974 
132 1.89239 2.95812 22.9957 -3.34781 -3.66309 -2.67346 -0.331664 -0.392214 0.148362 -3.52971 
133 1.80237 5.12213 21.7129 -2.76542 -3.68249 -2.44648 -0.206493 -0.827355 -0.157041 -3.53329 
134 3.94203 3.73211 21.7149 -3.36548 -3.09227 -2.43604 -0.464771 -0.352007 0.681454 -3.5333 
135 -0.256319 4.32293 22.9924 -3.51348 -4.73086 -2.94217 0.0643696 -0.914192 -0.177226 -3.53367 
136 -0.307939 4.31917 25.5534 -3.55146 -4.70799 -2.82126 0.0763926 -0.913368 -0.214481 -3.53368 
137 -0.421923 6.48721 24.2675 -2.96575 -4.41479 -2.54309 0.0837221 -1.35468 -0.26007 -3.53355 
138 1.74027 5.14208 24.2728 -2.79393 -3.69242 -2.34726 -0.179546 -0.838513 -0.193164 -3.53326 
139 -0.499399 6.48069 26.8285 -3.01895 -4.4112 -2.4326 0.0980539 -1.35555 -0.313103 -3.53349 
140 3.89601 3.77824 24.2747 -3.37335 -3.1238 -2.33626 -0.444331 -0.381199 0.660838 -3.53327 
141 1.85637 2.97994 25.5572 -3.34982 -3.66539 -2.54625 -0.308834 -0.407584 0.12719 -3.52966 
142 1.82018 3.0012 28.1212 -3.34401 -3.65392 -2.38998 -0.283827 -0.424548 0.103642 -3.5296 
143 1.67803 5.16104 26.8349 -2.82379 -3.69399 -2.22353 -0.151061 -0.852135 -0.233409 -3.53322 
144 3.84944 3.82352 26.8367 -3.37941 -3.15081 -2.21269 -0.420043 -0.413982 0.636058 -3.53322 
145 -0.359355 4.31483 28.1169 -3.58547 -4.66729 -2.66957 0.0860261 -0.912094 -0.253773 -3.53372 
146 -0.410565 4.31005 30.6833 -3.60506 -4.59929 -2.48387 0.0926567 -0.910134 -0.291761 -3.5338 
147 -0.576565 6.47334 29.3921 -3.06924 -4.39047 -2.29045 0.110391 -1.35512 -0.367897 -3.53346 
148 1.6157 5.17912 29.3995 -2.84911 -3.68102 -2.07213 -0.122208 -0.867525 -0.275663 -3.53316 
149 -0.653408 6.46543 31.9587 -3.10539 -4.34082 -2.11199 0.119998 -1.353 -0.41951 -3.53349 
150 3.80243 3.86803 29.4013 -3.37788 -3.16702 -2.06221 -0.393083 -0.448895 0.607909 -3.53316 
151 1.78389 3.02198 30.6881 -3.32103 -3.61986 -2.20306 -0.258078 -0.441119 0.0799863 -3.52955 
152 1.74765 3.04247 33.2583 -3.26756 -3.55207 -1.98761 -0.23397 -0.453748 0.060432 -3.52954 
153 1.55337 5.19654 31.9672 -2.85939 -3.6445 -1.89156 -0.0951282 -0.882575 -0.315349 -3.5331 
154 3.75518 3.91188 31.9688 -3.35884 -3.1624 -1.8829 -0.365741 -0.482344 0.57907 -3.5331 
155 -0.461559 4.30504 33.253 -3.59439 -4.49267 -2.26538 0.0959841 -0.907076 -0.323266 -3.53396 
156 -0.512294 4.30001 35.8261 -3.53565 -4.33855 -2.0228 0.096515 -0.902058 -0.343758 -3.53423 
157 -0.729905 6.45733 34.5287 -3.1097 -4.2468 -1.89756 0.125983 -1.34871 -0.460899 -3.53362 
158 1.4912 5.21365 34.5382 -2.83846 -3.57234 -1.68357 -0.0728034 -0.893094 -0.345496 -3.53307 
159 -0.805986 6.44942 37.1024 -3.06078 -4.09377 -1.65729 0.127987 -1.34096 -0.486414 -3.53389 
160 3.708 3.95532 34.5397 -3.30717 -3.12298 -1.67589 -0.341215 -0.508508 0.554506 -3.53307 
161 1.71164 3.06286 35.8318 -3.16965 -3.44049 -1.7508 -0.214197 -0.458603 0.0494828 -3.5296 
162 1.67603 3.08325 38.4084 -3.02172 -3.2833 -1.50338 -0.199911 -0.455345 0.0467235 -3.52976 
163 1.42946 5.23083 37.1126 -2.76733 -3.4518 -1.45503 -0.0579401 -0.893855 -0.360203 -3.53313 
164 3.66125 3.99863 37.1139 -3.20475 -3.03445 -1.44781 -0.322322 -0.522015 0.539365 -3.53312 
165 -0.562682 4.29503 38.4024 -3.41992 -4.13927 -1.77127 0.0958628 -0.893927 -0.354784 -3.53458 
166 -0.612631 4.28991 40.9813 -3.2547 -3.91083 -1.52309 0.0962084 -0.882173 -0.365375 -3.53492 
167 -0.88152 6.44179 39.6793 -2.94696 -3.88134 -1.41101 0.127219 -1.32802 -0.499185 -3.53426 
168 1.36837 5.24827 39.69 -2.63544 -3.27818 -1.21775 -0.0509477 -0.883631 -0.362777 -3.5333 
169 -0.956402 6.43415 42.2586 -2.7766 -3.62955 -1.17629 0.126349 -1.30987 -0.512038 -3.53461 
170 3.61519 4.04196 39.6912 -3.04138 -2.89177 -1.21097 -0.309489 -0.524129 0.532228 -3.53329 
171 1.64081 3.10356 40.9875 -2.83217 -3.08938 -1.25304 -0.189468 -0.44928 0.0441036 -3.53 
172 1.6059 3.12365 43.5687 -2.61098 -2.86678 -0.997398 -0.180368 -0.44701 0.0332356 -3.53027 
173 1.30799 5.26581 42.2697 -2.44923 -3.06061 -0.981812 -0.0490352 -0.868965 -0.367691 -3.53355 
174 3.56976 4.0852 42.2708 -2.82446 -2.70336 -0.977125 -0.300554 -0.524713 0.522198 -3.53354 
175 -0.662125 4.28447 43.5622 -3.05121 -3.66355 -1.27759 0.0986812 -0.86766 -0.383999 -3.53523 
176 -0.711333 4.27865 46.1445 -2.82142 -3.39522 -1.01464 0.102474 -0.852496 -0.41622 -3.53549 
177 -1.03069 6.42627 44.8393 -2.55671 -3.34522 -0.959603 0.12672 -1.28885 -0.530315 -3.53496 
178 1.24817 5.2833 44.851 -2.21591 -2.80378 -0.74886 -0.0504845 -0.858366 -0.386524 -3.53386 
179 -1.10477 6.4185 47.4203 -2.29409 -3.01662 -0.772517 0.129173 -1.26942 -0.544383 -3.53529 
180 3.52476 4.1283 44.852 -2.55932 -2.47654 -0.752145 -0.292878 -0.532704 0.500646 -3.53383 
181 1.5711 3.14347 46.1516 -2.36276 -2.61792 -0.719006 -0.172233 -0.456168 0.0056145 -3.53054 
182 1.53627 3.16344 48.7364 -2.08837 -2.36129 -0.347639 -0.183405 -0.479148 -0.0351325 -3.53015 
183 1.18845 5.30075 47.4331 -1.94171 -2.50484 -0.517806 -0.0636479 -0.864552 -0.4321 -3.53412 
184 3.47991 4.1713 47.4338 -2.23971 -2.22073 -0.544394 -0.286576 -0.558765 0.456076 -3.53404 
185 -0.760746 4.27348 48.7284 -2.6014 -3.07337 -0.666339 0.0965562 -0.842774 -0.42342 -3.53517 
186 -0.811621 4.26877 51.3169 -1.98836 -2.35095 0.313311 0.0838975 -0.84222 -0.652846 -3.53805 
187 -1.17889 6.41384 50.0002 -2.0552 -2.54103 -0.330446 0.0856851 -1.27532 -0.621598 -3.53574 
188 1.12775 5.31799 50.0156 -1.56929 -2.07901 -0.0208662 -0.110073 -0.944565 -0.598143 -3.53484 
189 -1.25707 6.40546 52.5877 -1.61247 -2.48694 0.643197 0.175824 -1.31631 -0.613012 -3.53281 
190 3.43505 4.21346 50.0156 -1.75958 -1.85325 -0.0396896 -0.309452 -0.668221 0.310733 -3.5349 
191 1.50027 3.18358 51.3264 -1.43166 -1.70129 0.6577 -0.172625 -0.548768 -0.132877 -3.53273 
192 1.46587 3.20964 53.9052 0.0267089 0.953997 -0.795857 0.566309 -0.560976 0.138981 -3.37565 
193 1.06597 5.33731 52.6041 -1.24917 -1.89858 0.441501 -0.236983 -0.801316 -0.410807 -3.52779 
194 3.38747 4.26008 52.6041 -1.41015 -1.71362 0.389832 -0.390661 -0.639427 0.587363 -3.52746 
195 -0.866323 4.2769 53.8949 -0.0508627 -0.206117 -1.18044 0.0793734 -1.26166 1.02745 -3.38132 
196 1.3298 4.1174 -56.3442 5.06942 2.90559 1.60242 -1.25473 -0.273892 0.110263 -2.79034 
197 -1.33605 6.40133 55.1665 4.18006 2.79745 1.28998 0.319922 -1.52319 0.19787 -3.26107 
198 1.00488 5.36129 55.1754 5.64207 6.63186 2.70774 0.369858 -0.636458 -0.0326243 -3.15047 
199 1.98371 6.26223 -55.1334 6.93987 9.11552 2.92913 0.134189 -0.847905 -0.525662 -3.02309 
200 3.34328 4.30996 55.1754 5.53064 7.35766 2.86911 0.118705 -0.278629 0.562632 -3.15115 
201 2.87095 2.09325 -56.362 4.04253 6.0065 1.881 -3.16453 0.252642 0.341788 -2.79939 
202 2.84551 2.1252 -53.8874 0.164997 0.763284 -3.02651 -0.982111 -0.732815 -0.162364 -3.51266 
203 3.53831 4.21674 -55.1525 6.03166 6.27391 1.75936 0.302436 -1.21951 -0.0444741 -3.1433 
204 5.07312 2.13635 -55.1525 6.04997 7.03886 2.00315 0.446065 -0.52812 0.0805344 -3.14511 
205 1.29262 4.16451 -53.8815 0.861249 -0.348271 -3.6751 -0.408881 -0.573879 0.839003 -3.51412 
206 1.24176 4.17585 -51.3147 -1.28714 -1.91129 -0.377587 -0.214934 -0.880906 0.220679 -3.53903 
207 1.90264 6.26187 -52.5941 -0.918017 -1.45681 -0.573079 -0.184187 -1.16805 0.820093 -3.52792 
208 3.4607 4.22944 -52.6036 -0.748976 -0.925866 0.095404 -0.67752 -0.496108 0.191352 -3.53019 
209 1.82403 6.27282 -50.0101 -1.64465 -2.32984 -0.26969 -0.197671 -1.27818 0.42862 -3.53673 
210 5.01221 2.17771 -52.6036 -1.34193 -0.348585 0.0545788 -0.502571 0.0191643 0.991486 -3.52952 
211 2.80522 2.14769 -51.32 -1.10368 -0.946923 -0.113585 -0.27821 -0.333527 0.262314 -3.53415 
212 2.77238 2.17446 -48.7405 -1.972 -1.83882 -0.549114 -0.290757 -0.220562 0.333896 -3.53088 
213 3.40036 4.25787 -50.02 -1.43244 -1.65468 -0.142385 -0.408966 -0.706395 0.284912 -3.53497 
214 4.971 2.23184 -50.02 -1.84443 -1.27435 -0.115257 -0.296572 0.0230674 0.834635 -3.53501 
215 1.18979 4.18023 -48.7356 -2.18122 -2.76031 -0.79524 -0.179416 -0.843983 0.274195 -3.5364 
216 1.14009 4.18595 -46.1542 -2.64044 -3.19328 -0.982377 -0.16084 -0.828547 0.394835 -3.53605 
217 1.74889 6.27832 -47.4307 -2.10371 -2.83525 -0.684006 -0.21181 -1.23689 0.539398 -3.53589 
218 3.34529 4.28722 -47.4412 -1.90046 -2.20982 -0.567615 -0.299953 -0.635192 0.333193 -3.53415 
219 1.67515 6.28984 -44.8497 -2.4736 -3.19171 -0.870706 -0.197334 -1.24027 0.599161 -3.53535 
220 4.93505 2.28423 -47.4404 -2.32418 -1.78939 -0.543869 -0.210696 0.108816 0.862716 -3.5342 
221 2.74229 2.20147 -46.1595 -2.36794 -2.26994 -0.742317 -0.228841 -0.158257 0.389385 -3.53075 
222 2.71405 2.2299 -43.5778 -2.68116 -2.59277 -0.952878 -0.211439 -0.146689 0.410191 -3.53038 
223 3.29197 4.31921 -44.8606 -2.23743 -2.57437 -0.722314 -0.258278 -0.621084 0.368978 -3.53393 
224 4.90232 2.33713 -44.8596 -2.66079 -2.14401 -0.725167 -0.175224 0.146319 0.894392 -3.53393 
225 1.0911 4.19423 -43.5724 -2.97998 -3.51289 -1.20973 -0.14675 -0.836579 0.42136 -3.53554 
226 1.04198 4.2033 -40.9914 -3.24076 -3.78798 -1.45058 -0.14358 -0.849995 0.428603 -3.5351 
227 1.60157 6.30313 -42.2688 -2.75694 -3.49762 -1.09723 -0.195853 -1.25817 0.615588 -3.53485 
228 3.23954 4.35271 -42.2798 -2.5117 -2.8707 -0.921665 -0.240374 -0.623487 0.387017 -3.53361 
229 1.52749 6.31717 -39.6891 -2.96857 -3.76471 -1.3408 -0.202276 -1.27777 0.619753 -3.53439 
230 4.87107 2.39096 -42.2788 -2.94488 -2.42623 -0.930588 -0.16363 0.158063 0.919817 -3.5336 
231 2.68634 2.25914 -40.9967 -2.93786 -2.85446 -1.18232 -0.207892 -0.144862 0.424469 -3.53007 
232 2.65868 2.28902 -38.4172 -3.1519 -3.06969 -1.42388 -0.212152 -0.144558 0.436135 -3.52982 
233 3.18729 4.38732 -39.6999 -2.72972 -3.11077 -1.1449 -0.234358 -0.62882 0.397616 -3.53334 
234 4.84038 2.44581 -39.6989 -3.18231 -2.64422 -1.15406 -0.163677 0.162636 0.941762 -3.53333 
235 0.992431 4.2127 -38.412 -3.44113 -4.03236 -1.70134 -0.148066 -0.863022 0.430125 -3.53469 
236 0.942416 4.22237 -35.8351 -3.58269 -4.24262 -1.95659 -0.157285 -0.873846 0.425031 -3.53431 
237 1.45273 6.33177 -37.1116 -3.11141 -3.98826 -1.59269 -0.212793 -1.29432 0.61498 -3.53399 
238 3.13499 4.42292 -37.1221 -2.89175 -3.29451 -1.37828 -0.237377 -0.63589 0.399875 -3.53315 
239 1.37734 6.34693 -34.5372 -3.18629 -4.15713 -1.83909 -0.223124 -1.3073 0.596357 -3.53368 
240 4.80995 2.50168 -37.121 -3.37014 -2.80081 -1.3864 -0.173613 0.161885 0.955849 -3.53315 
241 2.631 2.31951 -35.84 -3.3223 -3.23879 -1.66981 -0.223614 -0.147162 0.441948 -3.52964 
242 2.60326 2.35051 -33.2656 -3.44453 -3.35955 -1.90976 -0.242058 -0.155953 0.438062 -3.52955 
243 3.08254 4.45939 -34.5471 -2.99557 -3.42055 -1.60818 -0.24875 -0.647886 0.38857 -3.53307 
244 4.7797 2.55843 -34.5459 -3.50312 -2.898 -1.61562 -0.193556 0.150877 0.957028 -3.53306 
245 0.891994 4.2323 -33.2612 -3.66482 -4.4098 -2.20491 -0.167866 -0.882643 0.409291 -3.534 
246 0.841238 4.24239 -30.6907 -3.69495 -4.53113 -2.43275 -0.17681 -0.890145 0.381881 -3.5338 
247 1.30143 6.3625 -31.9663 -3.20318 -4.26928 -2.06376 -0.230208 -1.31769 0.561597 -3.5335 
248 3.02985 4.49644 -31.9753 -3.04592 -3.49607 -1.82194 -0.266792 -0.66568 0.362566 -3.53307 
249 1.22507 6.37813 -29.3989 -3.17991 -4.33441 -2.25566 -0.232995 -1.32598 0.514288 -3.53342 
250 4.74947 2.61579 -31.974 -3.58374 -2.94511 -1.8295 -0.221933 0.127245 0.945172 -3.53306 
251 2.57538 2.38185 -30.6946 -3.52007 -3.43615 -2.13251 -0.265714 -0.171492 0.424276 -3.52954 
252 2.54721 2.41328 -28.1267 -3.55746 -3.47905 -2.32966 -0.29165 -0.19131 0.403955 -3.52958 
253 2.97674 4.53365 -29.4069 -3.05524 -3.53507 -2.0113 -0.288508 -0.686757 0.326391 -3.53312 
254 4.71897 2.67342 -29.4055 -3.62248 -2.95741 -2.01946 -0.255348 0.0938488 0.924733 -3.5331 
255 0.79019 4.25244 -28.1235 -3.68773 -4.61253 -2.63054 -0.182319 -0.896684 0.345991 -3.53368 
256 0.738869 4.26221 -25.5594 -3.65836 -4.66372 -2.79478 -0.183808 -0.902201 0.306279 -3.53362 
257 1.14829 6.39344 -26.8348 -3.13401 -4.36626 -2.41154 -0.231632 -1.33213 0.460579 -3.53343 
258 2.92307 4.57062 -26.8416 -3.03772 -3.55123 -2.17292 -0.310632 -0.707991 0.286083 -3.53318 
259 1.07112 6.40809 -24.2734 -3.07876 -4.37719 -2.5338 -0.226579 -1.33629 0.405926 -3.53347 
260 4.68791 2.73103 -26.84 -3.63175 -2.94948 -2.18149 -0.290143 0.0556846 0.900712 -3.53316 
261 2.51863 2.44459 -25.5619 -3.56774 -3.49983 -2.49728 -0.317104 -0.212334 0.381108 -3.52963 
262 2.48955 2.47562 -22.9998 -3.56081 -3.50789 -2.63533 -0.340211 -0.232328 0.358635 -3.52968 
263 2.86872 4.60707 -24.279 -3.00522 -3.55477 -2.30695 -0.3306 -0.727215 0.246218 -3.53323 
264 4.65605 2.7884 -24.2773 -3.62234 -2.93219 -2.31536 -0.323621 0.0171309 0.876688 -3.53321 
265 0.687287 4.27152 -22.9979 -3.61868 -4.69422 -2.92676 -0.181453 -0.906625 0.266602 -3.5336 
266 0.635466 4.28024 -20.4386 -3.57652 -4.71154 -3.03032 -0.175784 -0.910029 0.229317 -3.5336 
267 0.993581 6.42186 -21.7142 -3.02278 -4.37638 -2.62746 -0.21835 -1.33891 0.353861 -3.53354 
268 2.81367 4.64282 -21.7187 -2.96622 -3.55239 -2.41557 -0.346932 -0.743418 0.209345 -3.53327 
269 0.91572 6.43462 -19.1567 -2.97092 -4.36997 -2.6981 -0.207488 -1.34055 0.306106 -3.5336 
270 4.62329 2.8454 -21.7169 -3.60226 -2.91258 -2.4232 -0.354277 -0.0190212 0.854673 -3.53325 
271 2.45992 2.5063 -20.4399 -3.54413 -3.50971 -2.74621 -0.360045 -0.250121 0.338101 -3.52972 
272 2.42974 2.53657 -17.8819 -3.52277 -3.50932 -2.83351 -0.376373 -0.265346 0.320094 -3.52976 
273 2.75792 4.67779 -19.1603 -2.92611 -3.5481 -2.50192 -0.359093 -0.756443 0.176463 -3.5333 
274 4.58957 2.90197 -19.1585 -3.577 -2.89468 -2.50836 -0.381511 -0.0514607 0.835522 -3.53328 
275 0.583434 4.2883 -17.8811 -3.53645 -4.72101 -3.11016 -0.167435 -0.912607 0.195483 -3.53361 
276 0.53122 4.29568 -15.3249 -3.50082 -4.72612 -3.1708 -0.157022 -0.914596 0.165294 -3.53363 
277 0.837579 6.4463 -16.6007 -2.92548 -4.36169 -2.75078 -0.194551 -1.34166 0.263117 -3.53367 
278 2.70151 4.71192 -16.6034 -2.88798 -3.54418 -2.56942 -0.36717 -0.766609 0.147633 -3.53333 
279 0.759196 6.4569 -14.0457 -2.88713 -4.35366 -2.78964 -0.180074 -1.34261 0.224622 -3.53372 
280 4.55488 2.95804 -16.6016 -3.55001 -2.88049 -2.57452 -0.405281 -0.0799042 0.819372 -3.53331 
281 2.39903 2.5664 -15.3253 -3.49992 -3.50898 -2.90107 -0.389366 -0.278118 0.304629 -3.52978 
282 2.36783 2.59579 -12.7698 -3.47744 -3.50985 -2.95246 -0.39939 -0.288794 0.291429 -3.5298 
283 2.64447 4.7452 -14.0477 -2.85339 -3.54174 -2.62134 -0.371581 -0.774434 0.122438 -3.53334 
284 4.51928 3.01361 -14.0459 -3.52334 -2.87076 -2.6251 -0.425828 -0.104658 0.805972 -3.53333 
285 0.478856 4.30236 -12.7698 -3.47052 -4.72901 -3.21615 -0.145085 -0.916216 0.138457 -3.53364 
286 0.426366 4.30833 -10.2155 -3.4456 -4.73093 -3.24936 -0.132072 -0.917628 0.114454 -3.53365 
287 0.680605 6.4664 -11.4915 -2.85557 -4.34696 -2.8179 -0.16452 -1.34359 0.189993 -3.53376 
288 2.58687 4.77765 -11.493 -2.82286 -3.54125 -2.66054 -0.372856 -0.780463 0.100261 -3.53335 
289 0.601838 6.47481 -8.93796 -2.83002 -4.34202 -2.83793 -0.148256 -1.34466 0.15848 -3.53379 
290 4.48278 3.06867 -11.4911 -3.49805 -2.86556 -2.66305 -0.443508 -0.126299 0.794891 -3.53334 
291 2.33617 2.62474 -10.2152 -3.45627 -3.51239 -2.99073 -0.406868 -0.297806 0.280096 -3.52982 
292 2.30407 2.65325 -7.66125 -3.43679 -3.51673 -3.0183 -0.4122 -0.305567 0.270213 -3.52983 
293 2.52873 4.80927 -8.93889 -2.79634 -3.54281 -2.6894 -0.371515 -0.785172 0.0804452 -3.53336 
294 4.44544 3.12321 -8.93701 -3.47462 -2.86458 -2.69076 -0.458686 -0.145474 0.785643 -3.53335 
295 0.373772 4.31361 -7.66173 -3.42558 -4.73253 -3.27282 -0.118331 -0.918907 0.092689 -3.53366 
296 0.321094 4.31819 -5.1084 -3.40982 -4.73413 -3.28827 -0.104117 -0.920032 0.0725733 -3.53366 
297 0.52292 6.48216 -6.38481 -2.80955 -4.33897 -2.85139 -0.131527 -1.34577 0.129325 -3.53382 
298 2.47011 4.84006 -6.38532 -2.77348 -3.54636 -2.70974 -0.367994 -0.788924 0.0623756 -3.53336 
299 0.443883 6.48844 -3.83194 -2.79333 -4.33776 -2.85942 -0.114461 -1.34676 0.10182 -3.53384 
300 4.40729 3.17723 -6.38343 -3.45315 -2.86742 -2.71003 -0.471678 -0.162792 0.777757 -3.53336 
301 2.27155 2.68132 -5.10773 -3.41903 -3.52278 -3.03702 -0.415721 -0.312419 0.261387 -3.52984 
302 2.23865 2.70895 -2.55449 -3.40289 -3.53045 -3.04814 -0.417661 -0.318623 0.253276 -3.52984 
303 2.41103 4.87003 -3.83209 -2.75386 -3.55176 -2.72288 -0.362601 -0.791966 0.0455114 -3.53337 
304 4.36837 3.23072 -3.83019 -3.43358 -2.87369 -2.72217 -0.482709 -0.178774 0.770813 -3.53336 
305 0.26835 4.32209 -2.55533 -3.3977 -4.73587 -3.29686 -0.0895868 -0.920896 0.0535543 -3.53367 
306 0.364759 6.49367 -1.27924 -2.7809 -4.33828 -2.86268 -0.0970803 -1.34746 0.075327 -3.53385 
307 2.35153 4.89919 -1.27905 -2.73715 -3.55893 -2.72966 -0.355499 -0.794456 0.0293912 -3.53337 
308 4.32871 3.28367 -1.27713 -3.41581 -2.88308 -2.728 -0.491891 -0.193854 0.764448 -3.53336 
309 2.43656 7.09145 -0.00288435 -2.21277 -3.35748 -2.4011 -0.318004 -1.19853 -0.184216 -3.53292 
310 0.434821 8.66873 -0.00326363 -2.24639 -4.01215 -2.4949 -0.0999585 -1.73377 0.0853845 -3.53361 