ITEM: TIMESTEP
409
ITEM: NUMBER OF ATOMS
37664
ITEM: BOX BOUNDS ff ff ff
-100 100
-100 100
-156.15 156.15
ITEM: ATOMS id x y z v_peratom_sxx v_peratom_syy v_peratom_szz v_peratom_sxy v_peratom_sxz v_peratom_syz c_atomPE 
1 -0.00391436 -0.00205124 0.000939347 -5.17826 -5.16973 -9.5392 0.000995845 -0.0134253 -0.0364107 -3.51527 
2 -0.00412249 -0.00180098 2.55415 -5.17755 -5.16906 -9.53772 0.000252364 -0.0143351 -0.0357341 -3.51527 
3 -0.00434447 -0.00150863 5.10744 -5.17234 -5.16433 -9.52639 -0.00073731 -0.0137471 -0.0350436 -3.51532 
4 -0.00457355 -0.00118092 7.66095 -5.16185 -5.15495 -9.50381 -0.00195483 -0.0111912 -0.0344247 -3.51541 
5 -0.00479272 -0.000832827 10.2148 -5.14512 -5.14008 -9.46797 -0.00330218 -0.00656049 -0.0338193 -3.51558 
6 -0.00497734 -0.000483717 12.7693 -5.12111 -5.11856 -9.41632 -0.00462224 -0.00019215 -0.0330368 -3.51581 
7 -0.00510071 -0.000152192 15.3245 -5.08848 -5.08882 -9.34574 -0.00574844 0.0072074 -0.0318404 -3.51614 
8 -0.0051404 0.000147988 17.8809 -5.04538 -5.04866 -9.2524 -0.0065547 0.0147551 -0.0300549 -3.51657 
9 -0.00508304 0.000409511 20.4386 -4.98907 -4.99504 -9.13159 -0.00698346 0.0216094 -0.0276425 -3.51712 
10 -0.00492631 0.000630645 22.9981 -4.91565 -4.92379 -8.97782 -0.0070477 0.0271373 -0.0247259 -3.51781 
11 -0.00467804 0.000812797 25.5598 -4.81983 -4.82951 -8.78541 -0.00681465 0.0310002 -0.0215635 -3.51867 
12 -0.00435332 0.000957704 28.1242 -4.69524 -4.7058 -8.55017 -0.00638108 0.0331604 -0.0184897 -3.5197 
13 -0.00397047 0.00106528 30.6916 -4.5359 -4.54676 -8.27248 -0.00584733 0.0338266 -0.0158355 -3.5209 
14 -0.00354701 0.00113275 33.2622 -4.3401 -4.35079 -7.96101 -0.00529525 0.033366 -0.0138484 -3.52219 
15 -0.00309644 0.00115495 35.836 -4.11556 -4.12576 -7.63321 -0.00477531 0.0322073 -0.0126457 -3.52346 
16 -0.00262646 0.00112504 38.4127 -3.87823 -3.88775 -7.30736 -0.0043044 0.0307515 -0.0122171 -3.52457 
17 -0.00213823 0.00103482 40.9919 -3.63969 -3.6484 -6.98988 -0.00386975 0.0293159 -0.0124791 -3.52546 
18 -0.00162411 0.000873433 43.5732 -3.40092 -3.40868 -6.66798 -0.00342762 0.028191 -0.0133544 -3.52619 
19 -0.00106383 0.000624872 46.157 -3.13685 -3.14334 -6.30482 -0.00287101 0.0276482 -0.0147917 -3.52693 
20 -0.000430747 0.000264117 48.7436 -2.75387 -2.75744 -5.86483 -0.00160278 0.0272131 -0.0166859 -3.52781 
21 5.95933e-07 -4.11185e-08 51.3317 -1.92314 -1.92287 -4.92073 0.000130086 -0.00138963 0.000872771 -3.53204 
22 4.01304e-07 -1.42881e-06 53.9138 -0.851943 -0.851954 -8.91782 -1.42786e-07 -2.9465e-05 -7.19765e-05 -3.48168 
23 8.71386e-07 -1.98378e-06 56.3885 1.68558 1.68559 1.87684 -1.71452e-05 2.56986e-05 -1.42787e-07 -2.55581 
24 -1.23087e-07 -1.12453e-06 -53.8876 -2.60689 -2.60692 -6.54957 -1.68385e-05 8.45817e-06 -3.32782e-05 -3.40183 
25 1.02659e-07 -1.55837e-06 -51.3239 -2.07925 -2.07935 -5.57987 -0.000388557 0.000890593 0.00213445 -3.52873 
26 -0.000229576 -0.000605792 -48.7463 -2.69516 -2.69323 -6.14904 0.00517827 -0.0145018 -0.0378718 -3.52639 
27 -0.000526124 -0.00145238 -46.1646 -3.02232 -3.01868 -6.3493 0.00917127 -0.0122111 -0.035188 -3.52677 
28 -0.000734485 -0.00209139 -43.5822 -3.30404 -3.29854 -6.60965 0.010219 -0.00831092 -0.0330354 -3.52634 
29 -0.000862509 -0.00257416 -41.0008 -3.55982 -3.55212 -6.89784 0.0103669 -0.00428515 -0.0314622 -3.52574 
30 -0.00093701 -0.0029312 -38.421 -3.81044 -3.80048 -7.20632 0.00993038 -0.000529302 -0.0302662 -3.52491 
31 -0.0009869 -0.00318128 -35.8435 -4.05709 -4.04507 -7.53108 0.0090596 0.0025654 -0.0293476 -3.52385 
32 -0.00104124 -0.00333943 -33.2686 -4.29033 -4.27674 -7.861 0.00790765 0.00461802 -0.0287362 -3.52261 
33 -0.00112593 -0.00342072 -30.6969 -4.49709 -4.48257 -8.17854 0.00665673 0.00539228 -0.0285139 -3.52133 
34 -0.00125927 -0.00344048 -28.1283 -4.66883 -4.6541 -8.46661 0.00548749 0.00489849 -0.0287414 -3.52011 
35 -0.00144866 -0.00341292 -25.5629 -4.8046 -4.79029 -8.71475 0.00453325 0.00340978 -0.029409 -3.51903 
36 -0.00168977 -0.00334973 -23.0001 -4.90847 -4.89505 -8.92005 0.00384925 0.00137835 -0.0304262 -3.51811 
37 -0.00196852 -0.0032597 -20.4397 -4.98639 -4.97409 -9.08492 0.00341117 -0.000719918 -0.031655 -3.51737 
38 -0.00226539 -0.00314943 -17.8813 -5.04417 -5.03304 -9.21441 0.00314115 -0.00254464 -0.0329557 -3.51678 
39 -0.00256056 -0.00302444 -15.3243 -5.08674 -5.07665 -9.31426 0.00294726 -0.00398966 -0.0342146 -3.51632 
40 -0.00283851 -0.00288957 -12.7686 -5.11792 -5.10866 -9.3899 0.0027575 -0.00518226 -0.0353414 -3.51597 
41 -0.00309076 -0.00274811 -10.2137 -5.14057 -5.13189 -9.44603 0.00253406 -0.0063859 -0.0362513 -3.51571 
42 -0.00331657 -0.0026001 -7.65949 -5.15678 -5.14841 -9.4865 0.00226501 -0.00784948 -0.0368556 -3.51552 
43 -0.00352192 -0.00244095 -5.10575 -5.16797 -5.15967 -9.51428 0.00194175 -0.00966246 -0.0370809 -3.51539 
44 -0.00371727 -0.00226165 -2.55232 -5.17502 -5.16662 -9.53147 0.0015368 -0.011663 -0.0369092 -3.5153 
45 0.0922828 2.15813 1.27649 -4.05354 -5.13707 -3.83744 -0.0507454 -0.450168 -0.000343422 -3.52907 
46 0.0657391 2.1594 3.82965 -4.04831 -5.13673 -3.83126 -0.0397231 -0.450135 -0.00983807 -3.52909 
47 0.039195 2.16036 6.38295 -4.0439 -5.13423 -3.81667 -0.0286538 -0.448732 -0.0197661 -3.52911 
48 0.0126923 2.16099 8.93656 -4.04097 -5.12931 -3.79249 -0.0173131 -0.446018 -0.03034 -3.52914 
49 -0.0137233 2.16129 11.4906 -4.04043 -5.12153 -3.75715 -0.00554551 -0.44236 -0.0417137 -3.52918 
50 -0.0400104 2.16122 14.0454 -4.0431 -5.11012 -3.70865 0.00662209 -0.438298 -0.0540573 -3.52922 
51 -0.0661392 2.16078 16.6011 -4.04938 -5.09379 -3.64438 0.0189316 -0.434372 -0.0676214 -3.52928 
52 -0.0920943 2.15996 19.1581 -4.05889 -5.07056 -3.56102 0.0309123 -0.430986 -0.0827471 -3.52934 
53 -0.117875 2.15878 21.7166 -4.07012 -5.03748 -3.45449 0.041939 -0.42834 -0.0997852 -3.52943 
54 -0.143493 2.15723 24.277 -4.0799 -4.99029 -3.32014 0.0513072 -0.426428 -0.11888 -3.52953 
55 -0.168967 2.15538 26.8398 -4.08251 -4.92299 -3.15358 0.0583359 -0.42507 -0.139565 -3.52967 
56 -0.194318 2.15327 29.4054 -4.06859 -4.82788 -2.9523 0.0625396 -0.423954 -0.160203 -3.52986 
57 -0.219561 2.151 31.9742 -4.02496 -4.69684 -2.71837 0.0639132 -0.422675 -0.177678 -3.53012 
58 -0.244691 2.14866 34.5463 -3.93789 -4.52549 -2.4607 0.0632464 -0.420749 -0.18852 -3.53047 
59 -0.269679 2.14629 37.1216 -3.80191 -4.31922 -2.19347 0.0620853 -0.417628 -0.192473 -3.53087 
60 -0.294477 2.14381 39.6996 -3.62541 -4.09269 -1.9281 0.0619862 -0.412891 -0.194598 -3.53128 
61 -0.319057 2.14113 42.2798 -3.42036 -3.85662 -1.66482 0.0636541 -0.406681 -0.201022 -3.53164 
62 -0.343451 2.13816 44.8621 -3.1934 -3.60782 -1.39212 0.0663305 -0.399586 -0.218403 -3.53193 
63 -0.367814 2.13511 47.4464 -2.91505 -3.29625 -1.10665 0.0667109 -0.393937 -0.238756 -3.53223 
64 -0.392512 2.13371 50.032 -2.43248 -2.8015 -0.493618 0.0610096 -0.413267 -0.205414 -3.53324 
65 -0.418483 2.1304 52.6263 -1.7658 -2.0055 -0.561405 0.0454882 -0.308943 -0.729981 -3.52457 
66 -0.44812 2.14653 55.1778 6.97661 7.73844 2.43088 0.0330207 -0.59732 1.77021 -3.02528 
67 0.649859 2.05055 -55.162 1.38946 0.842403 -0.678325 -0.188251 -0.0991973 1.20762 -3.26036 
68 0.633027 2.08274 -52.6122 -1.11198 -2.21871 -0.457712 -0.374491 -0.489289 -0.161426 -3.53566 
69 0.607028 2.08678 -50.0319 -2.0057 -2.55616 -0.876118 -0.169171 -0.429717 0.0761975 -3.53397 
70 0.581278 2.08803 -47.4533 -2.6386 -3.07285 -1.21094 -0.125022 -0.403289 0.147282 -3.5329 
71 0.556443 2.09137 -44.8713 -3.06056 -3.44247 -1.36915 -0.103496 -0.397537 0.191937 -3.53225 
72 0.531808 2.09554 -42.2894 -3.3601 -3.72799 -1.59748 -0.0942425 -0.401178 0.204252 -3.53182 
73 0.507074 2.09996 -39.7087 -3.60437 -3.98391 -1.84769 -0.0926147 -0.406552 0.210722 -3.5314 
74 0.482139 2.1045 -37.13 -3.80721 -4.2218 -2.11087 -0.0967504 -0.411627 0.214643 -3.53097 
75 0.456996 2.10917 -34.5539 -3.96538 -4.43657 -2.37986 -0.104966 -0.416032 0.213699 -3.53055 
76 0.431669 2.11394 -31.9808 -4.07449 -4.61842 -2.64258 -0.114919 -0.420048 0.205196 -3.53017 
77 0.406181 2.11876 -29.411 -4.13781 -4.76213 -2.88539 -0.12407 -0.423918 0.189142 -3.52987 
78 0.380545 2.12355 -26.8443 -4.16567 -4.86982 -3.09829 -0.130551 -0.427609 0.168145 -3.52965 
79 0.354768 2.12818 -24.2806 -4.16999 -4.94788 -3.27709 -0.133532 -0.430957 0.145293 -3.52948 
80 0.32886 2.13258 -21.7194 -4.16075 -5.00353 -3.42238 -0.133004 -0.433827 0.122868 -3.52936 
81 0.30284 2.13671 -19.1603 -4.14502 -5.04307 -3.53755 -0.1294 -0.436187 0.102134 -3.52927 
82 0.276728 2.14053 -16.6029 -4.12739 -5.07131 -3.62702 -0.123304 -0.438122 0.0835789 -3.52921 
83 0.250544 2.14403 -14.0468 -4.11054 -5.09172 -3.6953 -0.115289 -0.43981 0.0672231 -3.52916 
84 0.224302 2.14719 -11.4916 -4.09582 -5.10667 -3.74642 -0.105857 -0.441463 0.0528597 -3.52913 
85 0.198008 2.15002 -8.93723 -4.08364 -5.11772 -3.78374 -0.0954431 -0.443256 0.0401942 -3.52911 
86 0.17166 2.15252 -6.38338 -4.07384 -5.12585 -3.80993 -0.084432 -0.445239 0.0289031 -3.52909 
87 0.145256 2.1547 -3.8299 -4.06595 -5.13164 -3.82693 -0.0731591 -0.447285 0.018639 -3.52908 
88 0.118795 2.15657 -1.27665 -4.05934 -5.13535 -3.83593 -0.0618842 -0.449075 0.0090231 -3.52907 
89 0.215209 4.32478 -0.000781731 -3.39217 -4.7424 -3.30014 -0.0733045 -0.929545 0.0364358 -3.53365 
90 0.285131 6.49731 1.27497 -2.77238 -4.34444 -2.86319 -0.0787972 -1.3565 0.0484946 -3.53382 
91 2.20498 2.73569 -6.00718e-05 -3.38907 -3.5439 -3.05072 -0.416089 -0.328539 0.246149 -3.52984 
92 2.17128 2.76248 2.55306 -3.37442 -3.55308 -3.04956 -0.416137 -0.334593 0.238196 -3.52984 
93 2.29121 4.92709 1.2753 -2.72478 -3.57041 -2.73023 -0.345917 -0.803026 0.011643 -3.53336 
94 4.28792 3.33571 1.27703 -3.39945 -2.89779 -2.72665 -0.49827 -0.212206 0.758732 -3.53336 
95 0.16224 4.32735 2.55215 -3.38256 -4.74367 -3.29733 -0.0591205 -0.929717 0.018072 -3.53366 
96 0.109268 4.32925 5.10516 -3.37568 -4.74481 -3.28816 -0.0445493 -0.928343 -0.000661576 -3.53367 
97 0.205703 6.50049 3.82764 -2.76196 -4.34703 -2.85775 -0.0612089 -1.35544 0.0223056 -3.53383 
98 2.23081 4.95466 3.82833 -2.71023 -3.57963 -2.7261 -0.336484 -0.804624 -0.00446096 -3.53336 
99 0.126352 6.50262 6.38045 -2.75689 -4.35113 -2.84742 -0.0428749 -1.35329 -0.00449635 -3.53384 
100 4.24677 3.38762 3.83009 -3.38334 -2.91155 -2.72146 -0.504715 -0.226818 0.752224 -3.53336 
101 2.13723 2.7888 5.10628 -3.36062 -3.56365 -3.04169 -0.414635 -0.339979 0.230247 -3.52984 
102 2.10287 2.81464 7.65974 -3.34825 -3.57585 -3.02628 -0.411096 -0.344829 0.222131 -3.52983 
103 2.17009 4.98137 6.38152 -2.69885 -3.59064 -2.71554 -0.324922 -0.805413 -0.0207666 -3.53336 
104 4.20495 3.43891 6.38333 -3.36903 -2.92823 -2.71004 -0.508826 -0.241131 0.745466 -3.53336 
105 0.0563643 4.33047 7.65839 -3.37293 -4.74591 -3.27202 -0.0293424 -0.925663 -0.0201323 -3.53368 
106 0.00359651 4.33099 10.212 -3.37592 -4.74698 -3.248 -0.0133974 -0.922233 -0.0406963 -3.5337 
107 0.0471656 6.50369 8.93354 -2.75901 -4.35696 -2.83175 -0.0238266 -1.35072 -0.032423 -3.53384 
108 2.10913 5.00719 8.93501 -2.69192 -3.60353 -2.69772 -0.31095 -0.805821 -0.0377161 -3.53336 
109 -0.0317875 6.50368 11.4871 -2.7697 -4.36466 -2.81001 -0.00428421 -1.34847 -0.0620459 -3.53382 
110 4.16249 3.48956 8.93688 -3.35726 -2.94802 -2.69155 -0.510159 -0.255509 0.738264 -3.53336 
111 2.06823 2.83995 10.2136 -3.33817 -3.58973 -3.00208 -0.405058 -0.349466 0.213618 -3.52983 
112 2.03336 2.86472 12.768 -3.33121 -3.60507 -2.96745 -0.396181 -0.354401 0.20437 -3.52982 
113 2.04796 5.03209 11.489 -2.6907 -3.61816 -2.67157 -0.294448 -0.806469 -0.0558948 -3.53336 
114 4.11944 3.53953 11.4909 -3.34883 -2.97105 -2.66482 -0.508324 -0.270473 0.730347 -3.53336 
115 -0.0489796 4.3308 12.7662 -3.38598 -4.74782 -3.21486 0.00317025 -0.91871 -0.0627636 -3.5337 
116 -0.101328 4.32987 15.3211 -3.40391 -4.74789 -3.17082 0.0200332 -0.915649 -0.0868427 -3.5337 
117 -0.110466 6.50256 14.0412 -2.78971 -4.37413 -2.78105 0.015391 -1.34714 -0.0940312 -3.53379 
118 1.98664 5.05604 14.0436 -2.69614 -3.63415 -2.63564 -0.27544 -0.808065 -0.0760309 -3.53336 
119 -0.188853 6.50033 16.5961 -2.81921 -4.38497 -2.74313 0.0347693 -1.34702 -0.129141 -3.53375 
120 4.07582 3.58878 14.0455 -3.34439 -2.99724 -2.62827 -0.503011 -0.286688 0.721307 -3.53336 
121 1.99827 2.88891 15.3233 -3.328 -3.62129 -2.92031 -0.384281 -0.360272 0.193919 -3.5298 
122 1.963 2.91251 17.8795 -3.32867 -3.63742 -2.85811 -0.369301 -0.367749 0.181684 -3.52978 
123 1.92518 5.07901 16.5991 -2.70874 -3.65086 -2.58805 -0.254044 -0.811289 -0.0989589 -3.53335 
124 4.03163 3.63729 16.601 -3.34431 -3.02631 -2.57993 -0.493973 -0.304926 0.71058 -3.53335 
125 -0.153431 4.3282 17.8771 -3.42984 -4.74614 -3.11343 0.0367088 -0.913372 -0.113533 -3.5337 
126 -0.20529 4.32579 20.4343 -3.46311 -4.74079 -3.03941 0.0526259 -0.911923 -0.143441 -3.53369 
127 -0.266946 6.49697 19.1521 -2.85786 -4.39627 -2.6937 0.0534206 -1.34809 -0.168179 -3.5337 
128 1.86357 5.10098 19.1557 -2.72849 -3.66726 -2.52637 -0.230411 -0.816725 -0.125543 -3.53333 
129 -0.344751 6.4925 21.7094 -2.90474 -4.40634 -2.62918 0.0709604 -1.34998 -0.211845 -3.53363 
130 3.98687 3.68502 19.1576 -3.3485 -3.05766 -2.51735 -0.480998 -0.325993 0.697448 -3.53334 
131 1.92752 2.93551 20.4371 -3.33266 -3.65189 -2.77774 -0.351266 -0.377444 0.167031 -3.52976 
132 1.89185 2.95789 22.9964 -3.33832 -3.66228 -2.67556 -0.330294 -0.389792 0.149405 -3.52972 
133 1.80182 5.12193 21.7137 -2.75468 -3.68171 -2.44754 -0.20471 -0.824821 -0.156537 -3.53331 
134 3.94155 3.73194 21.7156 -3.35622 -3.09017 -2.43765 -0.463937 -0.350633 0.68111 -3.53332 
135 -0.256915 4.32267 22.9932 -3.50204 -4.72899 -2.94453 0.0671694 -0.911103 -0.176975 -3.53369 
136 -0.308321 4.31887 25.5541 -3.54321 -4.7062 -2.8239 0.0796974 -0.910556 -0.213955 -3.53369 
137 -0.422273 6.48696 24.2683 -2.95806 -4.41219 -2.54488 0.0870579 -1.35209 -0.260424 -3.53356 
138 1.73992 5.14186 24.2735 -2.78568 -3.69169 -2.34803 -0.177202 -0.835837 -0.192312 -3.53327 
139 -0.499515 6.48042 26.8292 -3.01442 -4.40885 -2.43505 0.101388 -1.35365 -0.313243 -3.5335 
140 3.89566 3.77802 24.2754 -3.36577 -3.12176 -2.33757 -0.44281 -0.379329 0.660843 -3.53328 
141 1.85599 2.97967 25.5578 -3.34233 -3.66473 -2.54774 -0.306688 -0.404837 0.128608 -3.52967 
142 1.81995 3.00088 28.1217 -3.33879 -3.65329 -2.39091 -0.281166 -0.42185 0.105305 -3.52962 
143 1.67787 5.16079 26.8355 -2.81816 -3.6932 -2.22413 -0.148431 -0.849687 -0.23238 -3.53323 
144 3.84924 3.82328 26.8373 -3.37377 -3.14877 -2.21368 -0.418047 -0.411922 0.636355 -3.53323 
145 -0.35953 4.31449 28.1175 -3.58038 -4.66561 -2.67255 0.0895517 -0.909884 -0.252988 -3.53372 
146 -0.410557 4.30968 30.6838 -3.6028 -4.5977 -2.48714 0.0961438 -0.908695 -0.29077 -3.5338 
147 -0.576477 6.47304 29.3927 -3.06742 -4.38836 -2.2935 0.113517 -1.354 -0.36787 -3.53347 
148 1.61571 5.17885 29.4 -2.84596 -3.68013 -2.07266 -0.119549 -0.865567 -0.274621 -3.53317 
149 -0.653159 6.46511 31.9592 -3.10572 -4.33892 -2.11546 0.122772 -1.35266 -0.419367 -3.53349 
150 3.80238 3.86775 29.4017 -3.37423 -3.16496 -2.06287 -0.390843 -0.446924 0.608407 -3.53317 
151 1.78381 3.02164 30.6885 -3.31804 -3.61919 -2.20354 -0.255178 -0.438773 0.0817494 -3.52957 
152 1.74769 3.0421 33.2586 -3.26656 -3.55129 -1.98772 -0.231073 -0.451958 0.0621729 -3.52955 
153 1.55352 5.19626 31.9676 -2.85838 -3.64349 -1.89209 -0.0926371 -0.881263 -0.31442 -3.53311 
154 3.75524 3.91159 31.9692 -3.35704 -3.16033 -1.88328 -0.363464 -0.480682 0.579681 -3.53311 
155 -0.461405 4.30466 33.2534 -3.59444 -4.49116 -2.2688 0.0992344 -0.906472 -0.32213 -3.53396 
156 -0.512037 4.29963 35.8265 -3.5374 -4.33708 -2.02621 0.0994018 -0.902283 -0.342511 -3.53423 
157 -0.729544 6.45701 34.5292 -3.1116 -4.24508 -1.90122 0.12833 -1.34912 -0.460664 -3.53362 
158 1.49146 5.21336 34.5385 -2.83915 -3.57124 -1.68413 -0.070611 -0.89249 -0.344748 -3.53308 
159 -0.805564 6.44911 37.1028 -3.06369 -4.0922 -1.66091 0.129886 -1.34206 -0.486066 -3.53388 
160 3.70814 3.95503 34.5399 -3.30693 -3.12094 -1.67603 -0.339064 -0.507293 0.555169 -3.53307 
161 1.71178 3.06249 35.8321 -3.17022 -3.4396 -1.75065 -0.211489 -0.457466 0.0511307 -3.52961 
162 1.67621 3.08289 38.4086 -3.02336 -3.28232 -1.50307 -0.19752 -0.454854 0.0482774 -3.52977 
163 1.42978 5.23055 37.1128 -2.76921 -3.45068 -1.45564 -0.0561195 -0.89394 -0.359628 -3.53313 
164 3.66145 3.99834 37.1141 -3.20568 -3.0325 -1.44776 -0.320416 -0.521298 0.540062 -3.53313 
165 -0.562371 4.29465 38.4027 -3.42273 -4.13783 -1.77451 0.0983211 -0.894928 -0.353412 -3.53458 
166 -0.612312 4.28956 40.9816 -3.25793 -3.90946 -1.52609 0.098218 -0.883868 -0.363805 -3.53492 
167 -0.881089 6.4415 39.6796 -2.95031 -3.8799 -1.41444 0.128692 -1.32974 -0.498645 -3.53425 
168 1.36871 5.248 39.6902 -2.63798 -3.27711 -1.21844 -0.0495298 -0.884318 -0.362292 -3.5333 
169 -0.95601 6.43389 42.2588 -2.77985 -3.62832 -1.17953 0.127449 -1.31214 -0.511165 -3.53461 
170 3.61541 4.04169 39.6913 -3.04303 -2.88997 -1.21081 -0.307907 -0.523873 0.532996 -3.53329 
171 1.64102 3.10323 40.9876 -2.83435 -3.08837 -1.25269 -0.187475 -0.449346 0.0456363 -3.53 
172 1.60609 3.12338 43.5688 -2.6132 -2.86585 -0.997144 -0.178831 -0.447479 0.0349018 -3.53027 
173 1.3083 5.26559 42.2698 -2.45193 -3.05971 -0.982629 -0.0480239 -0.87011 -0.367143 -3.53355 
174 3.56997 4.08497 42.2709 -2.82638 -2.7018 -0.976928 -0.299347 -0.524813 0.52312 -3.53354 
175 -0.661843 4.28417 43.5623 -3.05427 -3.66241 -1.28043 0.100246 -0.869947 -0.382083 -3.53523 
176 -0.711127 4.27844 46.1446 -2.8238 -3.39473 -1.01757 0.103595 -0.855323 -0.413682 -3.53549 
177 -1.03038 6.42607 44.8394 -2.55941 -3.34447 -0.962863 0.127528 -1.29155 -0.528885 -3.53496 
178 1.24842 5.28313 44.851 -2.21833 -2.80328 -0.749821 -0.049866 -0.859795 -0.385697 -3.53386 
179 -1.10458 6.41838 47.4203 -2.29601 -3.01706 -0.776405 0.129761 -1.27253 -0.542031 -3.53528 
180 3.52493 4.12813 44.852 -2.5611 -2.47542 -0.751926 -0.292082 -0.533023 0.501855 -3.53383 
181 1.57124 3.14329 46.1516 -2.36457 -2.61738 -0.71898 -0.171206 -0.456846 0.00768662 -3.53054 
182 1.53633 3.16338 48.7364 -2.08953 -2.36148 -0.34767 -0.183211 -0.47988 -0.0322888 -3.53015 
183 1.1886 5.30066 47.4331 -1.94358 -2.50519 -0.518708 -0.0633688 -0.86614 -0.430847 -3.53412 
184 3.48001 4.17121 47.4338 -2.24096 -2.22054 -0.543871 -0.286153 -0.559256 0.457749 -3.53404 
185 -0.760666 4.2734 48.7285 -2.60298 -3.07462 -0.669942 0.0971295 -0.846672 -0.419514 -3.53516 
186 -0.811621 4.26877 51.3169 -1.98844 -2.35104 0.311824 0.083886 -0.841933 -0.653075 -3.53805 
187 -1.17889 6.41384 50.0002 -2.0573 -2.54163 -0.333462 0.0867633 -1.27783 -0.619766 -3.53573 
188 1.12775 5.31799 50.0156 -1.56925 -2.07902 -0.0212162 -0.110549 -0.945559 -0.597539 -3.53484 
189 -1.25707 6.40546 52.5877 -1.61239 -2.48692 0.643249 0.175794 -1.31624 -0.613053 -3.53282 
190 3.43505 4.21346 50.0156 -1.75903 -1.85301 -0.039141 -0.309454 -0.66874 0.311621 -3.5349 
191 1.50027 3.18358 51.3264 -1.43162 -1.70132 0.657895 -0.172629 -0.548529 -0.133062 -3.53273 
192 1.46587 3.20964 53.9052 0.0266974 0.953986 -0.795895 0.566305 -0.560987 0.138965 -3.37565 
193 1.06597 5.33731 52.6041 -1.24921 -1.8986 0.441446 -0.236986 -0.801312 -0.410782 -3.52779 
194 3.38747 4.26008 52.6041 -1.41017 -1.71364 0.389785 -0.390656 -0.639417 0.58738 -3.52746 
195 -0.866323 4.2769 53.8949 -0.0508595 -0.206143 -1.18047 0.0793796 -1.26166 1.02744 -3.38132 
196 1.3298 4.1174 -56.3442 5.06942 2.90558 1.60241 -1.25474 -0.273891 0.110265 -2.79034 
197 -1.33605 6.40133 55.1665 4.18003 2.79747 1.28995 0.319918 -1.5232 0.197893 -3.26107 
198 1.00488 5.36129 55.1754 5.64211 6.63187 2.70776 0.369876 -0.636455 -0.0325992 -3.15047 
199 1.98371 6.26223 -55.1334 6.93989 9.11552 2.92917 0.134185 -0.847909 -0.525669 -3.02309 
200 3.34328 4.30996 55.1754 5.53065 7.3577 2.86913 0.118698 -0.278615 0.562646 -3.15115 
201 2.87095 2.09325 -56.362 4.04253 6.0065 1.88102 -3.16453 0.252651 0.341796 -2.79939 
202 2.84551 2.1252 -53.8874 0.165027 0.763306 -3.02647 -0.982103 -0.732811 -0.162362 -3.51266 
203 3.53831 4.21674 -55.1525 6.03166 6.27392 1.75935 0.302436 -1.2195 -0.044473 -3.1433 
204 5.07312 2.13635 -55.1525 6.04997 7.03887 2.00314 0.446063 -0.528118 0.08054 -3.14511 
205 1.29262 4.16451 -53.8815 0.861258 -0.348226 -3.67507 -0.408867 -0.573879 0.838999 -3.51412 
206 1.24176 4.17585 -51.3147 -1.28703 -1.91116 -0.376442 -0.21492 -0.880508 0.220613 -3.53903 
207 1.90264 6.26187 -52.5941 -0.917882 -1.45673 -0.572942 -0.184159 -1.168 0.820119 -3.52792 
208 3.4607 4.22944 -52.6036 -0.748916 -0.925846 0.0954047 -0.677507 -0.496045 0.191389 -3.53019 
209 1.82403 6.27282 -50.0101 -1.64513 -2.32873 -0.268083 -0.199645 -1.28146 0.428815 -3.53672 
210 5.01221 2.17771 -52.6036 -1.34187 -0.348594 0.0545747 -0.502561 0.01922 0.991511 -3.52952 
211 2.80522 2.14769 -51.32 -1.10373 -0.946922 -0.113102 -0.27815 -0.333111 0.26213 -3.53414 
212 2.77226 2.17449 -48.7405 -1.97049 -1.83825 -0.547256 -0.291092 -0.226205 0.332909 -3.53087 
213 3.40036 4.25787 -50.02 -1.43215 -1.65447 -0.140684 -0.408654 -0.709484 0.284004 -3.53497 
214 4.971 2.23184 -50.02 -1.84427 -1.27443 -0.114402 -0.296547 0.0201731 0.834059 -3.53501 
215 1.18965 4.18027 -48.7356 -2.17939 -2.7593 -0.791739 -0.179937 -0.849888 0.276072 -3.5364 
216 1.1397 4.18607 -46.1541 -2.63825 -3.19355 -0.978056 -0.162943 -0.833258 0.39614 -3.53605 
217 1.74858 6.27836 -47.4307 -2.10153 -2.8359 -0.680228 -0.212721 -1.241 0.5401 -3.53588 
218 3.34501 4.28726 -47.4411 -1.89944 -2.21026 -0.564529 -0.300512 -0.640414 0.331728 -3.53414 
219 1.67463 6.28992 -44.8496 -2.47101 -3.19302 -0.866483 -0.198904 -1.24427 0.599613 -3.53534 
220 4.9348 2.28427 -47.4403 -2.32321 -1.78993 -0.54223 -0.211485 0.103966 0.861963 -3.5342 
221 2.74194 2.20156 -46.1594 -2.36582 -2.27009 -0.740079 -0.230244 -0.163076 0.38865 -3.53074 
222 2.71352 2.23002 -43.5776 -2.67842 -2.59332 -0.950692 -0.213544 -0.151178 0.409392 -3.53037 
223 3.29147 4.31926 -44.8605 -2.23516 -2.57541 -0.719133 -0.259218 -0.625825 0.367602 -3.53392 
224 4.90186 2.33718 -44.8595 -2.65841 -2.1452 -0.723223 -0.176545 0.141857 0.893641 -3.53393 
225 1.0905 4.19441 -43.5722 -2.97739 -3.51349 -1.20506 -0.149724 -0.841011 0.422246 -3.53553 
226 1.04122 4.2035 -40.9911 -3.23771 -3.7887 -1.44571 -0.147157 -0.854042 0.429173 -3.53509 
227 1.60087 6.30324 -42.2685 -2.75384 -3.49929 -1.09262 -0.197855 -1.26197 0.615753 -3.53484 
228 3.23885 4.35277 -42.2796 -2.50889 -2.87215 -0.918334 -0.241703 -0.627892 0.385626 -3.5336 
229 1.52665 6.31728 -39.6887 -2.96504 -3.76657 -1.33595 -0.204573 -1.28117 0.619704 -3.53439 
230 4.87045 2.39101 -42.2786 -2.9419 -2.428 -0.92836 -0.16535 0.153874 0.919009 -3.5336 
231 2.68565 2.25926 -40.9965 -2.9348 -2.8551 -1.18031 -0.210501 -0.148974 0.423573 -3.53006 
232 2.65789 2.28913 -38.4169 -3.14872 -3.0703 -1.42209 -0.215095 -0.148151 0.435219 -3.52981 
233 3.18647 4.38736 -39.6997 -2.72655 -3.11245 -1.14155 -0.235976 -0.632755 0.396242 -3.53333 
234 4.83962 2.44583 -39.6987 -3.17905 -2.64635 -1.15169 -0.165642 0.158774 0.940879 -3.53333 
235 0.991556 4.21289 -38.4116 -3.43773 -4.03316 -1.6964 -0.152058 -0.866516 0.430504 -3.53468 
236 0.941459 4.22253 -35.8346 -3.5791 -4.24355 -1.95173 -0.161501 -0.876655 0.42533 -3.53431 
237 1.45178 6.33185 -37.1111 -3.10762 -3.99027 -1.58775 -0.215244 -1.29718 0.614806 -3.53398 
238 3.13406 4.42293 -37.1217 -2.88838 -3.2963 -1.37499 -0.23915 -0.639224 0.398594 -3.53315 
239 1.37634 6.34697 -34.5366 -3.18252 -4.15926 -1.83426 -0.225569 -1.30954 0.596123 -3.53367 
240 4.80909 2.50165 -37.1207 -3.36682 -2.80313 -1.38397 -0.175659 0.158432 0.954905 -3.53314 
241 2.63012 2.31957 -35.8396 -3.31912 -3.23933 -1.66823 -0.226729 -0.15012 0.44111 -3.52964 
242 2.60233 2.35052 -33.2651 -3.44141 -3.36006 -1.90836 -0.245178 -0.158216 0.437396 -3.52955 
243 3.08155 4.45935 -34.5466 -2.99218 -3.42241 -1.605 -0.250525 -0.650536 0.38746 -3.53306 
244 4.77877 2.55835 -34.5455 -3.49987 -2.90037 -1.61316 -0.195526 0.147898 0.956058 -3.53306 
245 0.890994 4.23242 -33.2606 -3.66122 -4.4109 -2.20026 -0.172085 -0.884696 0.409591 -3.534 
246 0.840232 4.24246 -30.69 -3.69155 -4.53247 -2.42843 -0.180784 -0.891446 0.382242 -3.5338 
247 1.30043 6.36249 -31.9656 -3.19973 -4.27153 -2.05919 -0.232467 -1.31926 0.561346 -3.53349 
248 3.02884 4.49633 -31.9748 -3.04269 -3.49798 -1.81889 -0.268406 -0.667626 0.361691 -3.53307 
249 1.22411 6.37807 -29.3982 -3.17712 -4.33679 -2.25152 -0.234879 -1.32692 0.514043 -3.53342 
250 4.74851 2.61564 -31.9735 -3.58066 -2.94746 -1.82704 -0.223677 0.124775 0.944224 -3.53306 
251 2.57442 2.38179 -30.694 -3.51701 -3.43674 -2.1312 -0.26866 -0.173054 0.423866 -3.52954 
252 2.54626 2.41314 -28.1261 -3.55445 -3.47987 -2.32835 -0.294241 -0.192215 0.403866 -3.52957 
253 2.97575 4.53347 -29.4062 -3.05236 -3.53706 -2.00836 -0.289799 -0.688042 0.325793 -3.53312 
254 4.71801 2.67319 -29.4049 -3.6196 -2.9597 -2.01699 -0.256729 0.0918896 0.92386 -3.5331 
255 0.789213 4.25244 -28.1227 -3.68473 -4.61413 -2.62661 -0.185795 -0.897308 0.34646 -3.53368 
256 0.737949 4.26214 -25.5585 -3.65597 -4.66563 -2.7913 -0.186563 -0.902278 0.306889 -3.53362 
257 1.14742 6.39331 -26.8339 -3.13223 -4.36876 -2.40796 -0.232961 -1.33253 0.460347 -3.53342 
258 2.92212 4.57036 -26.8408 -3.03536 -3.55338 -2.17006 -0.311453 -0.708712 0.285778 -3.53318 
259 1.07035 6.40788 -24.2724 -3.07831 -4.37984 -2.53085 -0.227206 -1.33629 0.405704 -3.53347 
260 4.68696 2.73071 -26.8393 -3.6291 -2.95174 -2.17901 -0.291046 0.0542124 0.899966 -3.53316 
261 2.5177 2.44437 -25.5612 -3.56475 -3.50103 -2.49587 -0.319174 -0.212659 0.381385 -3.52962 
262 2.48866 2.47534 -22.999 -3.55786 -3.50963 -2.63371 -0.341621 -0.232174 0.359297 -3.52968 
263 2.86785 4.60674 -24.2781 -3.00356 -3.55716 -2.30415 -0.330832 -0.7275 0.246201 -3.53323 
264 4.65515 2.788 -24.2766 -3.61992 -2.9345 -2.31284 -0.323954 0.0161029 0.876118 -3.53321 
265 0.686451 4.27137 -22.997 -3.61708 -4.69645 -2.92374 -0.183321 -0.906315 0.26737 -3.5336 
266 0.634734 4.28003 -20.4376 -3.57593 -4.71414 -3.02774 -0.176669 -0.909528 0.230238 -3.5336 
267 0.992958 6.42159 -21.7131 -3.02397 -4.37923 -2.62516 -0.218174 -1.33868 0.353635 -3.53353 
268 2.8129 4.64242 -21.7178 -2.96542 -3.55513 -2.41278 -0.346484 -0.743423 0.209585 -3.53327 
269 0.915257 6.43428 -19.1556 -2.97407 -4.3731 -2.69641 -0.206479 -1.34033 0.305852 -3.5336 
270 4.62245 2.84494 -21.7161 -3.60014 -2.91505 -2.42063 -0.35397 -0.0196657 0.854323 -3.53325 
271 2.45908 2.50594 -20.439 -3.54131 -3.51215 -2.7443 -0.360688 -0.24961 0.339139 -3.52972 
272 2.42898 2.53615 -17.8809 -3.52027 -3.51258 -2.83124 -0.376179 -0.264634 0.321465 -3.52975 
273 2.75727 4.67732 -19.1593 -2.92639 -3.55133 -2.49907 -0.35791 -0.756353 0.1769 -3.5333 
274 4.58881 2.90144 -19.1576 -3.57528 -2.89747 -2.5057 -0.380522 -0.0518082 0.835428 -3.53329 
275 0.582821 4.28803 -17.88 -3.53714 -4.72401 -3.10795 -0.167324 -0.912165 0.196531 -3.53361 
276 0.530736 4.29535 -15.3237 -3.50307 -4.72958 -3.16889 -0.155977 -0.914539 0.166425 -3.53362 
277 0.837281 6.44592 -16.5995 -2.93088 -4.36521 -2.74962 -0.192766 -1.34181 0.262802 -3.53366 
278 2.70098 4.7114 -16.6024 -2.88956 -3.548 -2.56647 -0.365244 -0.76666 0.148177 -3.53332 
279 0.759055 6.45646 -14.0444 -2.89486 -4.35766 -2.78892 -0.177662 -1.34357 0.224215 -3.5337 
280 4.55422 2.95747 -16.6007 -3.54886 -2.88376 -2.57174 -0.4036 -0.0800832 0.819558 -3.53331 
281 2.39837 2.56593 -15.3243 -3.49798 -3.51314 -2.89841 -0.38831 -0.277415 0.306253 -3.52978 
282 2.36726 2.59529 -12.7688 -3.47629 -3.51488 -2.94942 -0.397509 -0.288366 0.293192 -3.5298 
283 2.64408 4.74465 -14.0466 -2.85643 -3.54619 -2.61828 -0.36897 -0.774923 0.122964 -3.53334 
284 4.51871 3.01301 -14.0449 -3.52291 -2.87463 -2.6222 -0.423498 -0.104849 0.80644 -3.53333 
285 0.478495 4.30197 -12.7685 -3.47449 -4.73297 -3.21447 -0.143249 -0.916952 0.13963 -3.53363 
286 0.426109 4.3079 -10.2141 -3.4512 -4.73538 -3.24791 -0.12966 -0.919604 0.115646 -3.53363 
287 0.680591 6.46591 -11.4902 -2.86539 -4.3515 -2.81755 -0.161724 -1.34584 0.189478 -3.53374 
288 2.58658 4.77707 -11.4918 -2.82737 -3.54627 -2.65743 -0.369711 -0.781726 0.100618 -3.53335 
289 0.601895 6.47429 -8.93654 -2.84115 -4.34706 -2.83793 -0.145388 -1.34864 0.157862 -3.53377 
290 4.4823 3.06806 -11.4901 -3.49844 -2.87001 -2.66006 -0.440652 -0.126729 0.79561 -3.53334 
291 2.33568 2.62421 -10.2141 -3.45606 -3.51815 -2.98741 -0.404288 -0.297956 0.281863 -3.52981 
292 2.30366 2.65271 -7.66008 -3.43749 -3.52288 -3.01491 -0.409161 -0.306581 0.271842 -3.52982 
293 2.52853 4.80868 -8.93768 -2.80206 -3.54817 -2.68638 -0.3681 -0.787523 0.0804774 -3.53335 
294 4.44504 3.12261 -8.93598 -3.47578 -2.86945 -2.68778 -0.455526 -0.146386 0.786547 -3.53335 
295 0.373581 4.31313 -7.6603 -3.43235 -4.7374 -3.27169 -0.115633 -0.922511 0.0939054 -3.53364 
296 0.320913 4.31768 -5.10689 -3.41683 -4.73924 -3.28764 -0.101479 -0.925448 0.0738319 -3.53364 
297 0.522972 6.4816 -6.38332 -2.82062 -4.34432 -2.85179 -0.128925 -1.35164 0.128632 -3.53379 
298 2.46993 4.83948 -6.38405 -2.77978 -3.55168 -2.70704 -0.364674 -0.79257 0.0619492 -3.53335 
299 0.443841 6.48787 -3.8304 -2.80254 -4.34309 -2.86028 -0.112423 -1.35434 0.101088 -3.5338 
300 4.40694 3.17666 -6.38236 -3.45481 -2.87236 -2.70721 -0.468535 -0.164394 0.77874 -3.53335 
301 2.27119 2.68079 -5.1065 -3.42038 -3.52885 -3.03384 -0.41258 -0.314501 0.262749 -3.52983 
302 2.23829 2.70845 -2.5532 -3.40435 -3.53587 -3.04553 -0.414855 -0.321823 0.254268 -3.52983 
303 2.41083 4.86949 -3.83076 -2.75977 -3.55658 -2.72078 -0.359794 -0.796911 0.0445457 -3.53336 
304 4.36804 3.23021 -3.82907 -3.43525 -2.87822 -2.71968 -0.479966 -0.181186 0.771738 -3.53336 
305 0.268114 4.32156 -2.55376 -3.40362 -4.74092 -3.29693 -0.0873689 -0.927973 0.054857 -3.53364 
306 0.364539 6.4931 -1.27767 -2.78634 -4.34315 -2.864 -0.0957874 -1.35611 0.0745748 -3.53381 
307 2.35124 4.89869 -1.27769 -2.74146 -3.56279 -2.72841 -0.353584 -0.800443 0.0278813 -3.53336 
308 4.32835 3.28323 -1.27599 -3.41683 -2.88673 -2.72604 -0.489917 -0.197056 0.765165 -3.53336 
309 2.43623 7.09098 -0.00152556 -2.21619 -3.35997 -2.40126 -0.317362 -1.20595 -0.187938 -3.5329 
310 0.434472 8.66815 -0.00180072 -2.24742 -4.01593 -2.49632 -0.099524 -1.74238 0.0832571 -3.53357 