ITEM: TIMESTEP
409
ITEM: NUMBER OF ATOMS
37664
ITEM: BOX BOUNDS ff ff ff
-100 100
-100 100
-156.15 156.15
ITEM: ATOMS id x y z v_peratom_sxx v_peratom_syy v_peratom_szz v_peratom_sxy v_peratom_sxz v_peratom_syz c_atomPE 
1 -0.00391662 -0.00203446 0.000957719 -5.17831 -5.16992 -9.53958 0.000786686 -0.0134136 -0.0370811 -3.51526 
2 -0.00411303 -0.00179014 2.55417 -5.1775 -5.16919 -9.5379 7.79001e-05 -0.014072 -0.0363769 -3.51527 
3 -0.00431982 -0.0015059 5.10746 -5.17231 -5.16443 -9.52639 -0.000834423 -0.0133846 -0.035574 -3.51532 
4 -0.00453103 -0.00118698 7.66097 -5.16196 -5.15506 -9.50373 -0.00194622 -0.0109254 -0.0347814 -3.51542 
5 -0.00473184 -0.000846607 10.2149 -5.14549 -5.14021 -9.46792 -0.0031845 -0.0065711 -0.0339859 -3.51558 
6 -0.00490039 -0.000502877 12.7693 -5.12177 -5.11874 -9.4164 -0.0044167 -0.00058746 -0.0330421 -3.51582 
7 -0.00501231 -0.000173929 15.3246 -5.08942 -5.08905 -9.346 -0.00548999 0.00641045 -0.0317382 -3.51614 
8 -0.00504644 0.000126214 17.8809 -5.04653 -5.04893 -9.25285 -0.00627934 0.0136165 -0.0299009 -3.51657 
9 -0.00498951 0.000389607 20.4387 -4.99034 -4.99534 -9.13222 -0.00672023 0.0202359 -0.02748 -3.51712 
10 -0.00483842 0.000613814 22.9982 -4.91695 -4.92412 -8.97858 -0.00681628 0.0256535 -0.0245835 -3.51781 
11 -0.00459976 0.000799612 25.5599 -4.82108 -4.82984 -8.78625 -0.00662614 0.0295272 -0.0214576 -3.51867 
12 -0.00428713 0.000948201 28.1242 -4.69638 -4.70611 -8.55102 -0.00623934 0.0318002 -0.0184276 -3.5197 
13 -0.00391736 0.00105907 30.6916 -4.53688 -4.54705 -8.27329 -0.00575002 0.0326531 -0.015816 -3.52089 
14 -0.00350669 0.00112913 33.2622 -4.34089 -4.35104 -7.96174 -0.00523519 0.0324186 -0.013863 -3.52219 
15 -0.00306762 0.00115311 35.8361 -4.11616 -4.12597 -7.63382 -0.0047426 0.0314911 -0.012681 -3.52346 
16 -0.00260723 0.00112424 38.4127 -3.87867 -3.88792 -7.30785 -0.0042889 0.0302451 -0.0122586 -3.52457 
17 -0.00212646 0.00103448 40.9919 -3.64 -3.64853 -6.99026 -0.00386309 0.0289832 -0.0125148 -3.52546 
18 -0.00161771 0.000873253 43.5732 -3.40113 -3.40878 -6.66827 -0.00342415 0.0279915 -0.0133768 -3.52619 
19 -0.00106095 0.000624739 46.157 -3.13699 -3.14342 -6.30502 -0.00286813 0.0275444 -0.0147983 -3.52693 
20 -0.000429917 0.000264057 48.7436 -2.75396 -2.7575 -5.86493 -0.00160069 0.027169 -0.0166805 -3.52781 
21 5.95933e-07 -4.11185e-08 51.3317 -1.92322 -1.92296 -4.92086 0.000128413 -0.00139306 0.000871765 -3.53204 
22 4.01304e-07 -1.42881e-06 53.9138 -0.851883 -0.851894 -8.91779 2.25075e-07 -2.55953e-05 -7.17643e-05 -3.48169 
23 8.71386e-07 -1.98378e-06 56.3885 1.6856 1.68561 1.87691 -1.43329e-05 2.27994e-05 -6.03955e-07 -2.55581 
24 -1.23087e-07 -1.12453e-06 -53.8876 -2.60701 -2.60703 -6.54963 -1.62642e-05 9.52961e-06 -3.21504e-05 -3.40183 
25 1.02659e-07 -1.55837e-06 -51.3239 -2.07914 -2.0792 -5.5793 -0.000384008 0.000989664 0.00211519 -3.52873 
26 -0.000257685 -0.000602219 -48.7462 -2.69371 -2.69222 -6.14728 0.00515292 -0.0162582 -0.0376417 -3.5264 
27 -0.000591618 -0.00144578 -46.1646 -3.02055 -3.01765 -6.34728 0.00914269 -0.0140682 -0.0350271 -3.52678 
28 -0.000829172 -0.00208481 -43.5822 -3.30207 -3.29751 -6.6075 0.0102553 -0.0105586 -0.0329836 -3.52635 
29 -0.000983478 -0.00257052 -41.0007 -3.55763 -3.55106 -6.89561 0.0105147 -0.00702206 -0.0315397 -3.52575 
30 -0.00108193 -0.00293285 -38.4209 -3.80806 -3.79936 -7.20408 0.0102241 -0.0037396 -0.0304901 -3.52491 
31 -0.00115188 -0.00318966 -35.8433 -4.0546 -4.04394 -7.52893 0.00951432 -0.00100776 -0.0297182 -3.52385 
32 -0.00122013 -0.00335467 -33.2685 -4.28788 -4.27563 -7.85907 0.00851001 0.000864356 -0.0292255 -3.52262 
33 -0.00131068 -0.00344146 -30.6967 -4.49482 -4.48155 -8.17693 0.00736351 0.00167241 -0.0290659 -3.52133 
34 -0.00144096 -0.00346413 -28.1282 -4.66688 -4.65323 -8.46543 0.00623536 0.00141121 -0.0292883 -3.52011 
35 -0.00161869 -0.00343632 -25.5627 -4.80307 -4.78962 -8.71402 0.00525456 0.000300959 -0.0298916 -3.51903 
36 -0.00184103 -0.00336988 -23 -4.90742 -4.89461 -8.91975 0.0044864 -0.00127895 -0.0308094 -3.51811 
37 -0.00209629 -0.00327431 -20.4396 -4.98581 -4.97389 -9.085 0.0039252 -0.00292801 -0.0319348 -3.51737 
38 -0.00236788 -0.00315719 -17.8812 -5.044 -5.03304 -9.21478 0.00351431 -0.00436584 -0.0331575 -3.51678 
39 -0.00263884 -0.00302498 -15.3242 -5.08688 -5.07681 -9.31484 0.00318046 -0.00551354 -0.0343853 -3.51632 
40 -0.00289587 -0.00288325 -12.7685 -5.11826 -5.10893 -9.39061 0.00286405 -0.00648475 -0.0355374 -3.51596 
41 -0.00313155 -0.00273583 -10.2136 -5.14102 -5.13222 -9.4468 0.00253263 -0.0074978 -0.0365249 -3.5157 
42 -0.00334505 -0.00258322 -7.65944 -5.15722 -5.14874 -9.48727 0.00217502 -0.00874892 -0.0372433 -3.51551 
43 -0.00354118 -0.00242138 -5.10571 -5.16832 -5.15998 -9.51499 0.0017836 -0.010294 -0.0375942 -3.51538 
44 -0.0037285 -0.00224195 -2.55229 -5.17522 -5.16687 -9.53203 0.00133588 -0.0119752 -0.037528 -3.5153 
45 0.0922804 2.15814 1.27649 -4.05301 -5.13719 -3.83745 -0.0508598 -0.449591 -0.000817494 -3.52908 
46 0.0657618 2.1594 3.82965 -4.04835 -5.13691 -3.83125 -0.0396031 -0.449592 -0.010226 -3.52909 
47 0.0392442 2.16035 6.38296 -4.04464 -5.13445 -3.8167 -0.028336 -0.448354 -0.0200326 -3.52911 
48 0.0127659 2.16098 8.93658 -4.0424 -5.12955 -3.79261 -0.0168798 -0.445891 -0.030484 -3.52914 
49 -0.0136308 2.16127 11.4907 -4.04241 -5.12177 -3.75739 -0.00509386 -0.4425 -0.0417634 -3.52917 
50 -0.0399067 2.1612 14.0455 -4.04541 -5.11033 -3.70899 0.00701238 -0.438667 -0.0540528 -3.52922 
51 -0.0660321 2.16076 16.6012 -4.0518 -5.09397 -3.64481 0.0192147 -0.434908 -0.0675989 -3.52928 
52 -0.0919909 2.15995 19.1581 -4.06121 -5.07072 -3.56152 0.0310753 -0.43162 -0.0827317 -3.52934 
53 -0.117781 2.15876 21.7166 -4.07221 -5.03763 -3.45502 0.0419915 -0.42901 -0.099791 -3.52942 
54 -0.143411 2.15722 24.277 -4.08168 -4.99043 -3.32069 0.0512715 -0.427076 -0.118913 -3.52953 
55 -0.1689 2.15537 26.8398 -4.08392 -4.92312 -3.15411 0.0582399 -0.425649 -0.139625 -3.52967 
56 -0.194266 2.15327 29.4055 -4.06964 -4.828 -2.95278 0.0624126 -0.424432 -0.160285 -3.52986 
57 -0.219523 2.151 31.9742 -4.02568 -4.69694 -2.71879 0.0637819 -0.42304 -0.177772 -3.53012 
58 -0.244665 2.14866 34.5463 -3.93835 -4.52557 -2.46105 0.0631311 -0.421006 -0.188615 -3.53046 
59 -0.269662 2.14629 37.1216 -3.80217 -4.31929 -2.19375 0.0619977 -0.417796 -0.192559 -3.53087 
60 -0.294467 2.14381 39.6996 -3.62554 -4.09275 -1.92832 0.0619295 -0.412992 -0.194667 -3.53128 
61 -0.319052 2.14113 42.2798 -3.42041 -3.85666 -1.66499 0.063625 -0.406737 -0.201071 -3.53164 
62 -0.343449 2.13816 44.8621 -3.19342 -3.60785 -1.39225 0.0663215 -0.399613 -0.218434 -3.53193 
63 -0.367813 2.13511 47.4464 -2.91508 -3.29629 -1.10676 0.0667098 -0.393944 -0.238775 -3.53223 
64 -0.392512 2.13371 50.032 -2.43251 -2.8015 -0.493717 0.0610052 -0.413264 -0.205426 -3.53324 
65 -0.418483 2.1304 52.6263 -1.76576 -2.00554 -0.56142 0.0455064 -0.308953 -0.729936 -3.52457 
66 -0.44812 2.14653 55.1778 6.97657 7.73843 2.43091 0.0330111 -0.597323 1.77023 -3.02528 
67 0.649859 2.05055 -55.162 1.38943 0.842369 -0.678421 -0.188254 -0.0991981 1.2076 -3.26036 
68 0.633027 2.08274 -52.6122 -1.11195 -2.21869 -0.457714 -0.374488 -0.489288 -0.161404 -3.53566 
69 0.607028 2.08678 -50.0319 -2.00551 -2.55559 -0.875398 -0.169398 -0.429974 0.0761526 -3.53397 
70 0.581243 2.08803 -47.4533 -2.63752 -3.0723 -1.20968 -0.124912 -0.403844 0.147091 -3.5329 
71 0.556381 2.09137 -44.8713 -3.05922 -3.44196 -1.36786 -0.103334 -0.398102 0.191661 -3.53225 
72 0.531723 2.09553 -42.2893 -3.35847 -3.72748 -1.59616 -0.0940131 -0.40183 0.203851 -3.53182 
73 0.506968 2.09995 -39.7087 -3.60242 -3.98338 -1.84637 -0.0923028 -0.407307 0.2102 -3.53141 
74 0.482015 2.10449 -37.13 -3.80494 -4.22124 -2.10957 -0.0963581 -0.412471 0.214026 -3.53097 
75 0.456855 2.10914 -34.5538 -3.96283 -4.43599 -2.37862 -0.104518 -0.41693 0.21303 -3.53055 
76 0.431516 2.11391 -31.9807 -4.07176 -4.61783 -2.64146 -0.114459 -0.420953 0.20453 -3.53018 
77 0.406023 2.11874 -29.4109 -4.13502 -4.76157 -2.88443 -0.123653 -0.424784 0.188529 -3.52988 
78 0.380388 2.12352 -26.8443 -4.16296 -4.86933 -3.09753 -0.130231 -0.428401 0.167622 -3.52965 
79 0.354619 2.12815 -24.2806 -4.1675 -4.94749 -3.27653 -0.13335 -0.431659 0.144877 -3.52949 
80 0.328724 2.13257 -21.7194 -4.15857 -5.00326 -3.42203 -0.132985 -0.434438 0.122553 -3.52936 
81 0.302719 2.1367 -19.1603 -4.14322 -5.04292 -3.53737 -0.12955 -0.436714 0.101894 -3.52928 
82 0.276624 2.14053 -16.6028 -4.12593 -5.07127 -3.62699 -0.123612 -0.438572 0.0833756 -3.52921 
83 0.250456 2.14404 -14.0467 -4.10935 -5.09175 -3.69539 -0.115728 -0.440175 0.0670138 -3.52917 
84 0.224227 2.14721 -11.4916 -4.09478 -5.10674 -3.74658 -0.106391 -0.441721 0.0526055 -3.52913 
85 0.197944 2.15004 -8.9372 -4.08264 -5.1178 -3.78395 -0.0960253 -0.443365 0.0398676 -3.52911 
86 0.171607 2.15254 -6.38336 -4.07283 -5.12593 -3.81013 -0.0850028 -0.445158 0.0284947 -3.52909 
87 0.145216 2.15472 -3.82989 -4.06494 -5.13172 -3.82708 -0.0736471 -0.446992 0.0181633 -3.52908 
88 0.118771 2.15659 -1.27665 -4.05847 -5.13544 -3.83602 -0.0622148 -0.448597 0.00851971 -3.52907 
89 0.215197 4.32479 -0.000787348 -3.39154 -4.74252 -3.30009 -0.0732841 -0.928846 0.0361418 -3.53365 
90 0.285151 6.49731 1.27497 -2.77288 -4.34465 -2.86324 -0.0785108 -1.35596 0.0483646 -3.53383 
91 2.20497 2.73569 -5.66317e-05 -3.38861 -3.54411 -3.05088 -0.416134 -0.328297 0.246032 -3.52984 
92 2.1713 2.76248 2.55306 -3.37439 -3.55341 -3.04962 -0.415986 -0.334304 0.238138 -3.52984 
93 2.29122 4.92709 1.2753 -2.72473 -3.57072 -2.73016 -0.345704 -0.802588 0.0116923 -3.53336 
94 4.28792 3.33572 1.27703 -3.39937 -2.89802 -2.72675 -0.498176 -0.212006 0.758675 -3.53336 
95 0.162263 4.32735 2.55215 -3.38288 -4.74387 -3.29733 -0.0588691 -0.929129 0.0178362 -3.53366 
96 0.109325 4.32924 5.10517 -3.37696 -4.74507 -3.28827 -0.0441506 -0.927986 -0.000820613 -3.53367 
97 0.205761 6.50048 3.82764 -2.7635 -4.3473 -2.85792 -0.0608713 -1.35515 0.0222142 -3.53383 
98 2.23085 4.95466 3.82833 -2.7109 -3.57998 -2.72602 -0.336182 -0.804271 -0.00439114 -3.53336 
99 0.12644 6.50261 6.38046 -2.7592 -4.35142 -2.84772 -0.0425797 -1.35326 -0.00455501 -3.53384 
100 4.24679 3.38761 3.83009 -3.3837 -2.91183 -2.72153 -0.504517 -0.226601 0.752211 -3.53336 
101 2.13727 2.7888 5.10628 -3.36111 -3.56405 -3.04166 -0.414334 -0.339713 0.230238 -3.52983 
102 2.10292 2.81463 7.65975 -3.34929 -3.57626 -3.0262 -0.41073 -0.344654 0.222146 -3.52983 
103 2.17015 4.98136 6.38152 -2.70015 -3.59098 -2.71548 -0.324616 -0.805215 -0.0207092 -3.53336 
104 4.20499 3.4389 6.38333 -3.36982 -2.92852 -2.71009 -0.50858 -0.240942 0.745488 -3.53336 
105 0.0564495 4.33046 7.65841 -3.37501 -4.74619 -3.27225 -0.0289066 -0.925587 -0.020222 -3.53368 
106 0.00370125 4.33098 10.212 -3.37851 -4.74725 -3.24834 -0.0130225 -0.922415 -0.0407414 -3.53369 
107 0.0472736 6.50368 8.93356 -2.76175 -4.35724 -2.83214 -0.0236393 -1.35091 -0.0324651 -3.53383 
108 2.1092 5.00718 8.93502 -2.69369 -3.60382 -2.69773 -0.310715 -0.805807 -0.0377024 -3.53336 
109 -0.0316712 6.50367 11.4871 -2.77254 -4.36491 -2.81045 -0.00423223 -1.34882 -0.0620875 -3.53382 
110 4.16255 3.48955 8.93688 -3.35841 -2.94831 -2.6916 -0.509924 -0.255392 0.738304 -3.53336 
111 2.0683 2.83994 10.2136 -3.33964 -3.5901 -3.00201 -0.404714 -0.349431 0.213623 -3.52983 
112 2.03344 2.86471 12.768 -3.33298 -3.60537 -2.96743 -0.395923 -0.354522 0.204337 -3.52982 
113 2.04805 5.03208 11.489 -2.69273 -3.61838 -2.67167 -0.294321 -0.80663 -0.0559448 -3.53336 
114 4.11951 3.53952 11.4909 -3.35023 -2.9713 -2.66489 -0.508148 -0.270454 0.730382 -3.53336 
115 -0.0488652 4.33078 12.7662 -3.38877 -4.74806 -3.21528 0.00342375 -0.919089 -0.0627918 -3.5337 
116 -0.101213 4.32986 15.3211 -3.40664 -4.74809 -3.17128 0.0201454 -0.916158 -0.086875 -3.5337 
117 -0.110351 6.50255 14.0412 -2.7924 -4.37435 -2.7815 0.0153127 -1.34759 -0.0940831 -3.53379 
118 1.98673 5.05604 14.0436 -2.69822 -3.63432 -2.63585 -0.275432 -0.808365 -0.0761509 -3.53336 
119 -0.188747 6.50032 16.5962 -2.82158 -4.38515 -2.74357 0.0345863 -1.34752 -0.129208 -3.53375 
120 4.07589 3.58878 14.0455 -3.34592 -2.99745 -2.62838 -0.502922 -0.286775 0.72132 -3.53336 
121 1.99836 2.8889 15.3233 -3.32989 -3.62151 -2.92038 -0.384142 -0.360533 0.193833 -3.5298 
122 1.96308 2.91251 17.8795 -3.33054 -3.63757 -2.85828 -0.369285 -0.368116 0.181542 -3.52978 
123 1.92526 5.07901 16.5991 -2.7107 -3.65097 -2.58835 -0.254145 -0.811682 -0.0991436 -3.53335 
124 4.0317 3.63729 16.601 -3.34584 -3.02647 -2.58009 -0.493977 -0.305108 0.710558 -3.53335 
125 -0.153324 4.32819 17.8771 -3.43232 -4.74631 -3.1139 0.0366903 -0.913948 -0.113582 -3.5337 
126 -0.205195 4.32578 20.4344 -3.46521 -4.74094 -3.03986 0.052504 -0.912509 -0.143512 -3.53369 
127 -0.266854 6.49697 19.1521 -2.85979 -4.39642 -2.69409 0.0531681 -1.34858 -0.168263 -3.5337 
128 1.86365 5.10099 19.1557 -2.7302 -3.66732 -2.52673 -0.230599 -0.817166 -0.12578 -3.53333 
129 -0.344677 6.4925 21.7094 -2.90618 -4.40646 -2.62952 0.0706755 -1.35043 -0.211944 -3.53363 
130 3.98694 3.68502 19.1576 -3.34993 -3.05778 -2.51756 -0.481091 -0.326248 0.697388 -3.53334 
131 1.9276 2.93551 20.4371 -3.33437 -3.65197 -2.77799 -0.351361 -0.377877 0.166839 -3.52975 
132 1.89192 2.95789 22.9964 -3.33979 -3.6623 -2.67588 -0.330477 -0.390249 0.149178 -3.52972 
133 1.80189 5.12194 21.7137 -2.75609 -3.68174 -2.44795 -0.204958 -0.825267 -0.156807 -3.5333 
134 3.94161 3.73194 21.7156 -3.35749 -3.09024 -2.4379 -0.464102 -0.350933 0.681014 -3.53331 
135 -0.256835 4.32266 22.9932 -3.50369 -4.7291 -2.94496 0.066979 -0.911648 -0.177068 -3.53368 
136 -0.308259 4.31887 25.5542 -3.54442 -4.70628 -2.82428 0.0794743 -0.91102 -0.214068 -3.53369 
137 -0.422217 6.48696 24.2683 -2.95903 -4.41227 -2.54517 0.0867746 -1.35245 -0.260534 -3.53356 
138 1.73997 5.14186 24.2735 -2.78675 -3.69169 -2.34846 -0.17748 -0.83625 -0.192595 -3.53327 
139 -0.499475 6.48042 26.8293 -3.01499 -4.40889 -2.43527 0.101133 -1.35391 -0.313359 -3.5335 
140 3.89572 3.77803 24.2754 -3.36681 -3.1218 -2.33784 -0.443024 -0.379646 0.660718 -3.53328 
141 1.85605 2.97967 25.5578 -3.34353 -3.66473 -2.54811 -0.306928 -0.405281 0.128363 -3.52967 
142 1.82 3.00088 28.1217 -3.33969 -3.65327 -2.3913 -0.281429 -0.42225 0.105059 -3.52961 
143 1.67791 5.1608 26.8355 -2.81891 -3.69319 -2.22454 -0.148708 -0.850041 -0.232656 -3.53322 
144 3.84929 3.82328 26.8373 -3.37459 -3.14879 -2.21397 -0.418283 -0.412229 0.636212 -3.53323 
145 -0.359484 4.31449 28.1175 -3.58117 -4.66567 -2.67287 0.0893283 -0.910242 -0.253112 -3.53372 
146 -0.410525 4.30969 30.6838 -3.60326 -4.59774 -2.4874 0.0959452 -0.908946 -0.290896 -3.5338 
147 -0.576451 6.47305 29.3927 -3.06769 -4.38837 -2.29366 0.113307 -1.35416 -0.367985 -3.53347 
148 1.61574 5.17886 29.4001 -2.84643 -3.68012 -2.07305 -0.119799 -0.865848 -0.274873 -3.53317 
149 -0.653143 6.46512 31.9592 -3.1058 -4.33892 -2.11557 0.122614 -1.35275 -0.419474 -3.53349 
150 3.80241 3.86776 29.4017 -3.37483 -3.16497 -2.06316 -0.391076 -0.447202 0.608259 -3.53317 
151 1.78384 3.02164 30.6886 -3.31869 -3.61916 -2.20391 -0.255433 -0.439109 0.0815187 -3.52957 
152 1.74771 3.04211 33.2586 -3.26698 -3.55127 -1.98807 -0.231297 -0.452223 0.0619705 -3.52955 
153 1.55354 5.19627 31.9677 -2.85865 -3.64348 -1.89243 -0.0928426 -0.881468 -0.314637 -3.53311 
154 3.75527 3.9116 31.9692 -3.35745 -3.16034 -1.88355 -0.363674 -0.480917 0.579539 -3.53311 
155 -0.461384 4.30466 33.2534 -3.59467 -4.49118 -2.26901 0.0990759 -0.90663 -0.322249 -3.53396 
156 -0.512025 4.29963 35.8265 -3.53749 -4.3371 -2.02636 0.0992884 -0.902371 -0.342615 -3.53423 
157 -0.729535 6.45702 34.5292 -3.11157 -4.24506 -1.90129 0.12822 -1.34915 -0.460758 -3.53362 
158 1.49147 5.21337 34.5386 -2.83927 -3.57125 -1.68441 -0.0707667 -0.892629 -0.344924 -3.53308 
159 -0.80556 6.44911 37.1028 -3.06362 -4.09218 -1.66095 0.129819 -1.34206 -0.486143 -3.53388 
160 3.70816 3.95503 34.5399 -3.3072 -3.12095 -1.67628 -0.339239 -0.50748 0.555042 -3.53307 
161 1.71179 3.06249 35.8321 -3.17048 -3.43959 -1.75095 -0.211668 -0.457661 0.0509642 -3.52961 
162 1.67622 3.0829 38.4086 -3.0235 -3.28233 -1.50332 -0.197651 -0.454989 0.0481491 -3.52977 
163 1.42979 5.23055 37.1128 -2.76924 -3.45069 -1.45587 -0.0562281 -0.894028 -0.359763 -3.53313 
164 3.66146 3.99835 37.1141 -3.20584 -3.03251 -1.44798 -0.320551 -0.521438 0.539956 -3.53313 
165 -0.562364 4.29465 38.4027 -3.42273 -4.13783 -1.77462 0.0982501 -0.894971 -0.353495 -3.53458 
166 -0.612309 4.28957 40.9816 -3.2579 -3.90946 -1.52618 0.0981816 -0.883884 -0.363866 -3.53492 
167 -0.881088 6.4415 39.6796 -2.95023 -3.87988 -1.41447 0.128658 -1.32973 -0.498703 -3.53425 
168 1.36871 5.24801 39.6902 -2.63797 -3.27712 -1.21861 -0.0495991 -0.884367 -0.362389 -3.5333 
169 -0.95601 6.43389 42.2588 -2.77978 -3.6283 -1.17954 0.127438 -1.31212 -0.511206 -3.53461 
170 3.61542 4.04169 39.6913 -3.04311 -2.88998 -1.21099 -0.308005 -0.523971 0.532913 -3.53329 
171 1.64102 3.10324 40.9876 -2.83442 -3.08838 -1.25289 -0.187563 -0.449432 0.0455445 -3.53 
172 1.60609 3.12338 43.5688 -2.61323 -2.86587 -0.997308 -0.178885 -0.447529 0.0348421 -3.53027 
173 1.3083 5.26559 42.2698 -2.4519 -3.05973 -0.982768 -0.0480638 -0.870135 -0.367207 -3.53355 
174 3.56997 4.08498 42.2709 -2.82642 -2.70182 -0.977082 -0.299414 -0.524876 0.523061 -3.53354 
175 -0.661841 4.28417 43.5623 -3.05423 -3.66241 -1.28049 0.100234 -0.869949 -0.382123 -3.53523 
176 -0.711127 4.27844 46.1446 -2.82378 -3.39473 -1.01762 0.103597 -0.855318 -0.413704 -3.53549 
177 -1.03039 6.42607 44.8394 -2.55936 -3.34445 -0.962873 0.12753 -1.29153 -0.528911 -3.53496 
178 1.24842 5.28314 44.851 -2.21831 -2.8033 -0.749934 -0.0498862 -0.859805 -0.385735 -3.53386 
179 -1.10458 6.41838 47.4203 -2.29599 -3.01705 -0.776397 0.129766 -1.27251 -0.542048 -3.53528 
180 3.52493 4.12813 44.852 -2.56112 -2.47544 -0.752059 -0.292125 -0.53306 0.501817 -3.53383 
181 1.57124 3.14329 46.1516 -2.36459 -2.61741 -0.719113 -0.171237 -0.456873 0.00765014 -3.53054 
182 1.53633 3.16338 48.7364 -2.08957 -2.36154 -0.347774 -0.183227 -0.4799 -0.0323281 -3.53015 
183 1.1886 5.30066 47.4331 -1.94357 -2.50522 -0.518822 -0.0633766 -0.86614 -0.430868 -3.53412 
184 3.48002 4.17121 47.4338 -2.24097 -2.22056 -0.544007 -0.286176 -0.559276 0.457726 -3.53404 
185 -0.760666 4.2734 48.7285 -2.60301 -3.07463 -0.669959 0.0971263 -0.846663 -0.419526 -3.53516 
186 -0.811621 4.26877 51.3169 -1.98841 -2.35108 0.311837 0.0838943 -0.841936 -0.65307 -3.53805 
187 -1.17889 6.41384 50.0002 -2.05731 -2.54162 -0.333482 0.0867477 -1.27781 -0.61979 -3.53573 
188 1.12775 5.31799 50.0156 -1.56925 -2.07904 -0.0212406 -0.110549 -0.945573 -0.597563 -3.53484 
189 -1.25707 6.40546 52.5877 -1.61242 -2.48693 0.643217 0.175788 -1.31624 -0.613071 -3.53282 
190 3.43505 4.21346 50.0156 -1.75906 -1.85302 -0.0391779 -0.309461 -0.668746 0.311584 -3.5349 
191 1.50027 3.18358 51.3264 -1.43163 -1.70134 0.657907 -0.172631 -0.548528 -0.133054 -3.53273 
192 1.46587 3.20964 53.9052 0.0267098 0.954 -0.795849 0.566311 -0.560974 0.138985 -3.37565 
193 1.06597 5.33731 52.6041 -1.24918 -1.89858 0.441491 -0.236975 -0.801322 -0.410808 -3.52779 
194 3.38747 4.26008 52.6041 -1.41015 -1.7136 0.389829 -0.390666 -0.639438 0.587349 -3.52746 
195 -0.866323 4.2769 53.8949 -0.0508725 -0.206118 -1.18047 0.0793731 -1.26166 1.02744 -3.38132 
196 1.3298 4.1174 -56.3442 5.06942 2.9056 1.60242 -1.25472 -0.273893 0.110262 -2.79034 
197 -1.33605 6.40133 55.1665 4.18007 2.79744 1.28997 0.319925 -1.52319 0.197865 -3.26107 
198 1.00488 5.36129 55.1754 5.64206 6.63185 2.70773 0.369851 -0.636461 -0.0326327 -3.15047 
199 1.98371 6.26223 -55.1334 6.93987 9.11552 2.92912 0.13419 -0.847906 -0.525659 -3.02309 
200 3.34328 4.30996 55.1754 5.53064 7.35765 2.8691 0.118708 -0.278634 0.562626 -3.15115 
201 2.87095 2.09325 -56.362 4.04253 6.0065 1.88099 -3.16453 0.252639 0.341785 -2.79939 
202 2.84551 2.1252 -53.8874 0.164993 0.763282 -3.02649 -0.982114 -0.732816 -0.162366 -3.51266 
203 3.53831 4.21674 -55.1525 6.03166 6.27391 1.75936 0.302437 -1.21951 -0.0444745 -3.1433 
204 5.07312 2.13635 -55.1525 6.04997 7.03886 2.00316 0.446066 -0.528122 0.0805328 -3.14511 
205 1.29262 4.16451 -53.8815 0.861256 -0.348276 -3.67507 -0.408886 -0.573878 0.839002 -3.51412 
206 1.24176 4.17585 -51.3147 -1.28697 -1.91111 -0.376223 -0.214922 -0.880476 0.220623 -3.53903 
207 1.90264 6.26187 -52.5941 -0.917899 -1.45677 -0.573014 -0.184165 -1.16801 0.820117 -3.52792 
208 3.4607 4.22944 -52.6036 -0.748876 -0.925834 0.0954705 -0.677506 -0.496043 0.191392 -3.53019 
209 1.82403 6.27282 -50.0101 -1.64504 -2.32846 -0.267759 -0.199722 -1.28165 0.428696 -3.53672 
210 5.01221 2.17771 -52.6036 -1.34185 -0.348562 0.0546395 -0.502554 0.0192204 0.991513 -3.52952 
211 2.80522 2.14769 -51.32 -1.10365 -0.94684 -0.112732 -0.278129 -0.33306 0.262137 -3.53414 
212 2.77225 2.17449 -48.7405 -1.96982 -1.83791 -0.546309 -0.290979 -0.226954 0.332603 -3.53088 
213 3.40036 4.25787 -50.02 -1.43184 -1.65417 -0.140112 -0.408572 -0.709773 0.283826 -3.53497 
214 4.971 2.23184 -50.02 -1.84387 -1.27422 -0.113853 -0.296506 0.0198559 0.833951 -3.53501 
215 1.18964 4.18027 -48.7356 -2.17872 -2.75886 -0.791016 -0.179806 -0.850325 0.275844 -3.5364 
216 1.13966 4.18606 -46.1541 -2.63741 -3.1932 -0.977185 -0.162734 -0.833602 0.395907 -3.53604 
217 1.74856 6.27835 -47.4306 -2.10099 -2.83565 -0.679542 -0.212564 -1.24122 0.539887 -3.53588 
218 3.34499 4.28725 -47.4411 -1.89895 -2.21012 -0.563628 -0.300394 -0.640861 0.331436 -3.53414 
219 1.67459 6.28991 -44.8496 -2.47034 -3.19273 -0.865806 -0.198652 -1.24449 0.599368 -3.53534 
220 4.93478 2.28427 -47.4403 -2.32262 -1.78984 -0.541398 -0.211415 0.103437 0.861802 -3.5342 
221 2.7419 2.20156 -46.1594 -2.36484 -2.27 -0.739009 -0.230119 -0.163687 0.38838 -3.53074 
222 2.71346 2.23002 -43.5776 -2.67719 -2.59336 -0.949527 -0.213378 -0.151823 0.409077 -3.53037 
223 3.29143 4.31925 -44.8605 -2.23443 -2.57533 -0.718229 -0.259041 -0.626242 0.367288 -3.53392 
224 4.90182 2.33718 -44.8595 -2.6575 -2.14516 -0.722403 -0.176445 0.141362 0.893475 -3.53393 
225 1.09044 4.1944 -43.5722 -2.97636 -3.51316 -1.20416 -0.149431 -0.841391 0.421943 -3.53553 
226 1.04115 4.20348 -40.9911 -3.23644 -3.78836 -1.4448 -0.146775 -0.854485 0.428788 -3.53509 
227 1.60082 6.30322 -42.2685 -2.75302 -3.49899 -1.09194 -0.197513 -1.26222 0.615448 -3.53484 
228 3.2388 4.35276 -42.2796 -2.50798 -2.87213 -0.917368 -0.241478 -0.628347 0.385257 -3.5336 
229 1.52659 6.31725 -39.6887 -2.96403 -3.76624 -1.33525 -0.20414 -1.28147 0.619347 -3.53439 
230 4.87039 2.391 -42.2786 -2.94077 -2.42802 -0.92749 -0.165218 0.153356 0.918821 -3.5336 
231 2.68558 2.25926 -40.9965 -2.93333 -2.85523 -1.17907 -0.210293 -0.149704 0.423184 -3.53006 
232 2.6578 2.28912 -38.4168 -3.14701 -3.07047 -1.4208 -0.214844 -0.148961 0.434758 -3.52981 
233 3.18641 4.38735 -39.6996 -2.72546 -3.11248 -1.14053 -0.235711 -0.63326 0.395811 -3.53333 
234 4.83955 2.44582 -39.6986 -3.17773 -2.6464 -1.15078 -0.165481 0.158218 0.940662 -3.53333 
235 0.991468 4.21287 -38.4116 -3.43618 -4.03279 -1.69549 -0.151587 -0.867022 0.430056 -3.53468 
236 0.941355 4.22251 -35.8345 -3.57725 -4.24313 -1.95084 -0.16096 -0.87721 0.424854 -3.53431 
237 1.45171 6.33182 -37.1111 -3.10638 -3.98989 -1.58705 -0.21473 -1.29752 0.614419 -3.53398 
238 3.13399 4.42291 -37.1217 -2.8871 -3.29636 -1.37396 -0.238855 -0.639765 0.398114 -3.53315 
239 1.37626 6.34694 -34.5366 -3.18102 -4.15884 -1.83356 -0.224995 -1.3099 0.595742 -3.53367 
240 4.80901 2.50164 -37.1207 -3.36532 -2.80318 -1.38304 -0.175474 0.157855 0.954664 -3.53315 
241 2.63001 2.31956 -35.8395 -3.3172 -3.2395 -1.66694 -0.226442 -0.150974 0.440597 -3.52964 
242 2.60221 2.3505 -33.2651 -3.43934 -3.36021 -1.90711 -0.244873 -0.159064 0.436863 -3.52955 
243 3.08147 4.45933 -34.5466 -2.99071 -3.42248 -1.60397 -0.250215 -0.651084 0.386958 -3.53306 
244 4.77869 2.55834 -34.5455 -3.49823 -2.9004 -1.61225 -0.195322 0.147331 0.955808 -3.53306 
245 0.890877 4.23239 -33.2605 -3.65909 -4.41046 -2.19941 -0.171511 -0.885279 0.409129 -3.53401 
246 0.840105 4.24242 -30.6899 -3.68918 -4.53201 -2.42764 -0.18023 -0.892031 0.381833 -3.5338 
247 1.30033 6.36245 -31.9656 -3.19798 -4.27109 -2.05852 -0.231869 -1.31964 0.561005 -3.53349 
248 3.02874 4.49631 -31.9747 -3.04105 -3.49805 -1.81789 -0.2681 -0.668147 0.361199 -3.53307 
249 1.22401 6.37803 -29.3981 -3.17514 -4.33635 -2.25089 -0.234307 -1.32731 0.513771 -3.53342 
250 4.74841 2.61562 -31.9735 -3.57892 -2.94744 -1.82617 -0.223467 0.124255 0.943985 -3.53306 
251 2.5743 2.38177 -30.6939 -3.51486 -3.43683 -2.13004 -0.268361 -0.173842 0.423348 -3.52954 
252 2.54613 2.41312 -28.126 -3.55231 -3.47989 -2.32732 -0.293979 -0.192905 0.403398 -3.52958 
253 2.97565 4.53344 -29.4062 -3.05058 -3.53711 -2.00743 -0.289521 -0.688508 0.325343 -3.53312 
254 4.7179 2.67317 -29.4048 -3.61783 -2.95963 -2.01618 -0.256531 0.0914488 0.923652 -3.53311 
255 0.789079 4.2524 -28.1227 -3.68221 -4.6137 -2.62592 -0.18532 -0.897875 0.346131 -3.53368 
256 0.737813 4.26211 -25.5585 -3.65339 -4.66525 -2.79072 -0.186224 -0.902816 0.306655 -3.53362 
257 1.1473 6.39327 -26.8339 -3.13006 -4.36837 -2.40739 -0.232471 -1.33292 0.460162 -3.53342 
258 2.92201 4.57034 -26.8408 -3.03351 -3.5534 -2.16923 -0.311229 -0.709108 0.285395 -3.53318 
259 1.07024 6.40785 -24.2724 -3.07599 -4.37952 -2.53036 -0.226848 -1.33668 0.405607 -3.53347 
260 4.68686 2.7307 -26.8393 -3.62735 -2.95162 -2.17829 -0.290879 0.0538682 0.899804 -3.53316 
261 2.51758 2.44436 -25.5611 -3.56271 -3.50097 -2.49502 -0.318981 -0.21323 0.380989 -3.52963 
262 2.48854 2.47532 -22.999 -3.556 -3.5095 -2.63306 -0.341523 -0.232629 0.358984 -3.52968 
263 2.86775 4.60672 -24.2781 -3.00168 -3.55715 -2.30344 -0.330688 -0.727825 0.245895 -3.53323 
264 4.65505 2.78799 -24.2765 -3.61827 -2.93433 -2.31222 -0.323841 0.0158561 0.876012 -3.53321 
265 0.686317 4.27135 -22.9969 -3.61453 -4.69616 -2.92328 -0.183162 -0.90682 0.267223 -3.5336 
266 0.634605 4.28001 -20.4376 -3.57346 -4.71394 -3.02739 -0.176719 -0.909996 0.230157 -3.5336 
267 0.992835 6.42156 -21.7131 -3.02152 -4.37901 -2.62476 -0.21799 -1.33907 0.353613 -3.53353 
268 2.8128 4.64241 -21.7177 -2.96357 -3.55509 -2.41221 -0.346442 -0.743685 0.209352 -3.53327 
269 0.915131 6.43427 -19.1556 -2.9715 -4.37298 -2.6961 -0.206488 -1.3407 0.30588 -3.5336 
270 4.62236 2.84493 -21.7161 -3.59862 -2.91486 -2.42013 -0.35393 -0.0198299 0.85427 -3.53325 
271 2.45898 2.50594 -20.439 -3.53968 -3.51197 -2.74387 -0.360706 -0.249967 0.338898 -3.52972 
272 2.42888 2.53615 -17.8809 -3.51887 -3.51236 -2.83102 -0.376323 -0.264918 0.321277 -3.52975 
273 2.75717 4.67732 -19.1593 -2.92457 -3.55126 -2.49866 -0.357982 -0.756563 0.176726 -3.5333 
274 4.58872 2.90144 -19.1576 -3.57391 -2.89727 -2.50533 -0.38057 -0.0519143 0.835415 -3.53329 
275 0.582698 4.28802 -17.8799 -3.53477 -4.72392 -3.10772 -0.167584 -0.912579 0.196483 -3.53361 
276 0.53062 4.29535 -15.3237 -3.50076 -4.72956 -3.16875 -0.156426 -0.914866 0.166373 -3.53362 
277 0.837154 6.44591 -16.5995 -2.92815 -4.36517 -2.74939 -0.192957 -1.3421 0.262848 -3.53366 
278 2.70088 4.7114 -16.6023 -2.88778 -3.54789 -2.56621 -0.365433 -0.766821 0.14804 -3.53332 
279 0.758929 6.45646 -14.0444 -2.89201 -4.35768 -2.78876 -0.177992 -1.34373 0.224246 -3.53371 
280 4.55414 2.95747 -16.6007 -3.54762 -2.88357 -2.5715 -0.403742 -0.0801563 0.819563 -3.53331 
281 2.39828 2.56594 -15.3243 -3.49677 -3.51289 -2.89838 -0.388577 -0.277649 0.306089 -3.52978 
282 2.36718 2.5953 -12.7687 -3.47521 -3.51463 -2.94955 -0.39788 -0.288557 0.293028 -3.5298 
283 2.64398 4.74466 -14.0466 -2.85466 -3.54607 -2.61815 -0.369258 -0.775024 0.122845 -3.53334 
284 4.51863 3.01302 -14.0449 -3.52177 -2.87445 -2.62207 -0.423726 -0.104906 0.806438 -3.53333 
285 0.478387 4.30198 -12.7685 -3.47222 -4.73299 -3.21441 -0.143833 -0.917142 0.139539 -3.53363 
286 0.42601 4.30791 -10.2141 -3.44896 -4.73541 -3.24789 -0.130301 -0.919598 0.11549 -3.53363 
287 0.680469 6.46592 -11.4902 -2.86248 -4.35155 -2.81744 -0.162117 -1.3458 0.189466 -3.53374 
288 2.5865 4.77708 -11.4918 -2.82561 -3.54615 -2.65741 -0.370057 -0.781741 0.100507 -3.53335 
289 0.601784 6.4743 -8.93654 -2.83835 -4.34712 -2.83785 -0.145749 -1.34835 0.157793 -3.53377 
290 4.48224 3.06807 -11.4901 -3.49739 -2.86986 -2.66005 -0.440939 -0.126773 0.795582 -3.53334 
291 2.33562 2.62423 -10.2141 -3.45505 -3.51791 -2.98766 -0.404724 -0.298094 0.281685 -3.52981 
292 2.3036 2.65273 -7.66007 -3.43652 -3.5227 -3.01522 -0.409604 -0.306644 0.271649 -3.52982 
293 2.52845 4.80869 -8.93767 -2.80035 -3.54809 -2.68642 -0.36844 -0.787424 0.0803757 -3.53335 
294 4.44499 3.12262 -8.93598 -3.4748 -2.86934 -2.68784 -0.455828 -0.146406 0.786483 -3.53335 
295 0.373494 4.31315 -7.66029 -3.4302 -4.73743 -3.27169 -0.116234 -0.922264 0.0936777 -3.53364 
296 0.320844 4.3177 -5.10689 -3.41493 -4.73928 -3.28762 -0.101939 -0.924963 0.073545 -3.53364 
297 0.522883 6.48161 -6.38332 -2.81823 -4.34439 -2.85172 -0.129161 -1.35112 0.12851 -3.53379 
298 2.46987 4.83949 -6.38405 -2.77824 -3.55167 -2.7071 -0.364936 -0.792338 0.0618695 -3.53336 
299 0.443782 6.48788 -3.8304 -2.80089 -4.34318 -2.86022 -0.112472 -1.35366 0.100934 -3.5338 
300 4.4069 3.17668 -6.38236 -3.45393 -2.87232 -2.70732 -0.468798 -0.164371 0.778647 -3.53335 
301 2.27115 2.68081 -5.10649 -3.41947 -3.52877 -3.03415 -0.412956 -0.314464 0.262558 -3.52983 
302 2.23826 2.70847 -2.5532 -3.4036 -3.53593 -3.04579 -0.41509 -0.321676 0.254103 -3.52983 
303 2.41078 4.8695 -3.83077 -2.75855 -3.55668 -2.72081 -0.359912 -0.796554 0.0445041 -3.53336 
304 4.36801 3.23022 -3.82907 -3.43454 -2.87827 -2.71981 -0.480135 -0.181103 0.771633 -3.53336 
305 0.268071 4.32158 -2.55376 -3.40223 -4.74099 -3.29689 -0.0876065 -0.927317 0.0545442 -3.53365 
306 0.364518 6.49311 -1.27767 -2.7857 -4.3433 -2.86398 -0.0956427 -1.35542 0.0744188 -3.53382 
307 2.35122 4.8987 -1.27769 -2.74075 -3.56301 -2.72838 -0.353526 -0.800006 0.0278876 -3.53336 
308 4.32834 3.28324 -1.27599 -3.41638 -2.88687 -2.72616 -0.489957 -0.196907 0.765074 -3.53336 
309 2.43623 7.09098 -0.00153416 -2.21611 -3.36022 -2.40109 -0.317134 -1.20545 -0.187784 -3.53291 