ITEM: TIMESTEP
409
ITEM: NUMBER OF ATOMS
37664
ITEM: BOX BOUNDS ff ff ff
-100 100
-100 100
-156.15 156.15
ITEM: ATOMS id x y z v_peratom_sxx v_peratom_syy v_peratom_szz v_peratom_sxy v_peratom_sxz v_peratom_syz c_atomPE 
1 -0.00391797 -0.00202778 0.000962808 -5.17833 -5.16998 -9.53973 0.000711419 -0.0134007 -0.0373187 -3.51526 
2 -0.00411083 -0.00178527 2.55417 -5.17747 -5.16923 -9.53796 9.27814e-06 -0.0139501 -0.0366136 -3.51527 
3 -0.00431267 -0.00150379 5.10746 -5.17227 -5.16446 -9.52639 -0.000881243 -0.0132063 -0.0357799 -3.51532 
4 -0.00451771 -0.00118811 7.66097 -5.16196 -5.15508 -9.50368 -0.00195832 -0.0107662 -0.0349303 -3.51542 
5 -0.00471182 -0.00085085 10.2149 -5.14558 -5.14025 -9.46787 -0.00315632 -0.00650703 -0.0340645 -3.51558 
6 -0.00487423 -0.000509495 12.7693 -5.12197 -5.1188 -9.41639 -0.00435227 -0.000670983 -0.0330543 -3.51582 
7 -0.00498157 -0.000181864 15.3246 -5.08974 -5.08913 -9.34607 -0.00540069 0.0061641 -0.0317014 -3.51614 
8 -0.00501329 0.000118036 17.8809 -5.04693 -5.04903 -9.253 -0.00617919 0.0132272 -0.0298371 -3.51657 
9 -0.00495629 0.000382052 20.4387 -4.9908 -4.99546 -9.13244 -0.00662192 0.0197468 -0.0274092 -3.51712 
10 -0.00480721 0.000607448 22.9982 -4.91743 -4.92424 -8.97886 -0.00672909 0.0251172 -0.02452 -3.51781 
11 -0.0045721 0.0007947 25.5599 -4.82154 -4.82997 -8.78656 -0.00655551 0.0289942 -0.0214101 -3.51866 
12 -0.00426396 0.000944749 28.1242 -4.69679 -4.70623 -8.55133 -0.00618711 0.0313122 -0.0183996 -3.5197 
13 -0.00389901 0.00105688 30.6916 -4.53723 -4.54715 -8.27358 -0.00571503 0.032238 -0.0158064 -3.52089 
14 -0.00349295 0.00112791 33.2623 -4.34117 -4.35113 -7.962 -0.00521423 0.0320891 -0.0138674 -3.52219 
15 -0.00305794 0.00115252 35.8361 -4.11637 -4.12604 -7.63403 -0.00473154 0.0312466 -0.0126934 -3.52346 
16 -0.00260087 0.001124 38.4128 -3.87882 -3.88798 -7.30802 -0.00428382 0.0300755 -0.0122732 -3.52457 
17 -0.00212263 0.00103439 40.9919 -3.6401 -3.64857 -6.99039 -0.00386093 0.0288738 -0.0125271 -3.52546 
18 -0.00161567 0.000873197 43.5732 -3.4012 -3.40882 -6.66836 -0.00342295 0.0279271 -0.0133842 -3.52619 
19 -0.00106005 0.000624689 46.157 -3.13704 -3.14345 -6.30508 -0.00286706 0.0275118 -0.0148004 -3.52693 
20 -0.000429655 0.000264032 48.7436 -2.75398 -2.75752 -5.86496 -0.00159976 0.0271564 -0.0166783 -3.52781 
21 5.95933e-07 -4.11185e-08 51.3317 -1.92327 -1.923 -4.92092 0.000127637 -0.0013951 0.000871324 -3.53204 
22 4.01304e-07 -1.42881e-06 53.9138 -0.851854 -0.851865 -8.91778 4.08126e-07 -2.36704e-05 -7.16586e-05 -3.48169 
23 8.71386e-07 -1.98378e-06 56.3885 1.68561 1.68561 1.87695 -1.29267e-05 2.13497e-05 -8.34557e-07 -2.55581 
24 -1.23087e-07 -1.12453e-06 -53.8876 -2.60707 -2.60708 -6.54967 -1.59705e-05 1.013e-05 -3.16122e-05 -3.40183 
25 1.02659e-07 -1.55837e-06 -51.3239 -2.07909 -2.07913 -5.57909 -0.000382341 0.00102362 0.00210757 -3.52873 
26 -0.000267327 -0.000600898 -48.7462 -2.6932 -2.69187 -6.14666 0.00514119 -0.0168604 -0.037556 -3.5264 
27 -0.000614143 -0.00144328 -46.1646 -3.01993 -3.01729 -6.34657 0.00912761 -0.0147124 -0.0349658 -3.52678 
28 -0.000861948 -0.00208224 -43.5821 -3.30138 -3.29715 -6.60674 0.0102624 -0.0113511 -0.0329593 -3.52635 
29 -0.00102574 -0.00256892 -41.0007 -3.55685 -3.55067 -6.89481 0.0105615 -0.00800173 -0.0315606 -3.52575 
30 -0.00113308 -0.00293311 -38.4209 -3.80719 -3.79896 -7.20327 0.010325 -0.00490448 -0.0305645 -3.52492 
31 -0.00121069 -0.00319238 -35.8433 -4.05368 -4.04352 -7.52813 0.00967738 -0.00231888 -0.0298495 -3.52385 
32 -0.00128437 -0.00335999 -33.2685 -4.28696 -4.27522 -7.85834 0.00873288 -0.000522062 -0.029406 -3.52262 
33 -0.00137724 -0.00344893 -30.6967 -4.49397 -4.48116 -8.17633 0.00763098 0.000300041 -0.0292753 -3.52133 
34 -0.00150625 -0.00347277 -28.1282 -4.66616 -4.6529 -8.465 0.00652171 0.000139165 -0.0294977 -3.52011 
35 -0.00167926 -0.00344484 -25.5627 -4.80252 -4.78937 -8.71377 0.00553016 -0.000808461 -0.0300739 -3.51903 
36 -0.0018941 -0.00337704 -23 -4.90706 -4.89445 -8.91966 0.00472543 -0.00219979 -0.0309482 -3.51811 
37 -0.00214023 -0.00327922 -20.4396 -4.98562 -4.97381 -9.08505 0.00411129 -0.0036712 -0.0320289 -3.51737 
38 -0.00240228 -0.00315943 -17.8812 -5.04396 -5.03304 -9.21493 0.00364234 -0.00496834 -0.0332196 -3.51677 
39 -0.00266446 -0.00302457 -15.3242 -5.08695 -5.07687 -9.31505 0.00325454 -0.00601993 -0.0344363 -3.51631 
40 -0.00291416 -0.00288049 -12.7685 -5.1184 -5.10902 -9.39086 0.00289333 -0.0069285 -0.0355991 -3.51596 
41 -0.0031443 -0.00273112 -10.2136 -5.14119 -5.13233 -9.44707 0.00252688 -0.00788966 -0.0366153 -3.5157 
42 -0.0033539 -0.002577 -7.65943 -5.15739 -5.14886 -9.48755 0.00214214 -0.00907606 -0.037374 -3.51551 
43 -0.00354731 -0.0024142 -5.1057 -5.16846 -5.16009 -9.51525 0.00172955 -0.010529 -0.0377689 -3.51538 
44 -0.00373239 -0.00223454 -2.55229 -5.17531 -5.16696 -9.53225 0.0012668 -0.0120912 -0.0377417 -3.5153 
45 0.0922776 2.15815 1.27649 -4.05276 -5.13722 -3.83745 -0.050928 -0.449366 -0.000995224 -3.52908 
46 0.0657677 2.1594 3.82965 -4.04829 -5.13695 -3.83123 -0.0395862 -0.44936 -0.0103779 -3.52909 
47 0.0392597 2.16035 6.38296 -4.04483 -5.13451 -3.81668 -0.0282395 -0.448171 -0.0201416 -3.52911 
48 0.0127906 2.16097 8.93658 -4.04286 -5.12963 -3.79262 -0.0167284 -0.445801 -0.0305441 -3.52914 
49 -0.0135986 2.16126 11.4907 -4.0431 -5.12186 -3.75745 -0.00492321 -0.442521 -0.0417814 -3.52917 
50 -0.0398698 2.16119 14.0455 -4.04626 -5.11042 -3.7091 0.00716836 -0.43879 -0.0540435 -3.52922 
51 -0.0659937 2.16076 16.6012 -4.0527 -5.09406 -3.64497 0.0193333 -0.435106 -0.0675784 -3.52927 
52 -0.0919537 2.15994 19.1581 -4.06209 -5.0708 -3.5617 0.0311472 -0.431862 -0.0827127 -3.52934 
53 -0.117747 2.15876 21.7166 -4.073 -5.0377 -3.45522 0.0420185 -0.429265 -0.0997815 -3.52942 
54 -0.143383 2.15722 24.277 -4.08233 -4.99049 -3.32089 0.051262 -0.427319 -0.118916 -3.52953 
55 -0.168877 2.15537 26.8399 -4.08443 -4.92318 -3.1543 0.0582059 -0.42586 -0.139642 -3.52967 
56 -0.194249 2.15327 29.4055 -4.07001 -4.82804 -2.95296 0.0623666 -0.424602 -0.160312 -3.52986 
57 -0.21951 2.151 31.9743 -4.02593 -4.69698 -2.71894 0.0637348 -0.423166 -0.177805 -3.53012 
58 -0.244656 2.14866 34.5464 -3.9385 -4.5256 -2.46117 0.0630906 -0.421092 -0.188649 -3.53046 
59 -0.269656 2.14629 37.1216 -3.80226 -4.31931 -2.19385 0.0619677 -0.41785 -0.192589 -3.53087 
60 -0.294464 2.14381 39.6996 -3.62558 -4.09276 -1.92839 0.0619106 -0.413025 -0.194691 -3.53128 
61 -0.31905 2.14113 42.2798 -3.42043 -3.85668 -1.66505 0.0636157 -0.406755 -0.201088 -3.53164 
62 -0.343448 2.13816 44.8621 -3.19343 -3.60787 -1.39229 0.0663188 -0.399621 -0.218444 -3.53193 
63 -0.367813 2.13511 47.4464 -2.9151 -3.2963 -1.10679 0.0667091 -0.393947 -0.238782 -3.53223 
64 -0.392512 2.13371 50.032 -2.43252 -2.8015 -0.493756 0.0610023 -0.413263 -0.205431 -3.53324 
65 -0.418483 2.1304 52.6263 -1.76574 -2.00555 -0.561428 0.0455155 -0.308958 -0.729913 -3.52457 
66 -0.44812 2.14653 55.1778 6.97656 7.73842 2.43093 0.0330062 -0.597325 1.77024 -3.02528 
67 0.649859 2.05055 -55.162 1.38942 0.842351 -0.678469 -0.188256 -0.0991985 1.2076 -3.26036 
68 0.633027 2.08274 -52.6122 -1.11194 -2.21869 -0.457716 -0.374487 -0.489288 -0.161392 -3.53566 
69 0.607028 2.08678 -50.0319 -2.00544 -2.55539 -0.875136 -0.169476 -0.430061 0.0761391 -3.53397 
70 0.581231 2.08803 -47.4533 -2.63714 -3.07211 -1.20924 -0.124875 -0.404034 0.147027 -3.5329 
71 0.55636 2.09137 -44.8713 -3.05875 -3.44177 -1.36741 -0.10328 -0.398298 0.191565 -3.53225 
72 0.531694 2.09553 -42.2893 -3.35789 -3.7273 -1.5957 -0.0939346 -0.402059 0.203709 -3.53182 
73 0.506931 2.09995 -39.7087 -3.60173 -3.98319 -1.84589 -0.0921934 -0.407577 0.210013 -3.53141 
74 0.481971 2.10448 -37.1299 -3.80412 -4.22104 -2.1091 -0.0962174 -0.412776 0.213801 -3.53097 
75 0.456805 2.10914 -34.5538 -3.9619 -4.43577 -2.37817 -0.104354 -0.417256 0.212785 -3.53055 
76 0.431462 2.1139 -31.9807 -4.07074 -4.6176 -2.64105 -0.11429 -0.421282 0.204284 -3.53018 
77 0.405966 2.11873 -29.4109 -4.13397 -4.76135 -2.88408 -0.1235 -0.425096 0.188304 -3.52988 
78 0.380332 2.12351 -26.8442 -4.16194 -4.86913 -3.09725 -0.130116 -0.428682 0.167435 -3.52965 
79 0.354566 2.12815 -24.2805 -4.16658 -4.94733 -3.27633 -0.133291 -0.431901 0.144734 -3.52949 
80 0.328676 2.13256 -21.7193 -4.15779 -5.00315 -3.4219 -0.13299 -0.434642 0.12245 -3.52937 
81 0.302678 2.1367 -19.1602 -4.14259 -5.04286 -3.5373 -0.129618 -0.436887 0.10182 -3.52928 
82 0.276589 2.14053 -16.6028 -4.12545 -5.07124 -3.62698 -0.123735 -0.43872 0.0833127 -3.52921 
83 0.250426 2.14404 -14.0467 -4.10897 -5.09176 -3.69542 -0.115894 -0.440301 0.0669468 -3.52917 
84 0.224202 2.14721 -11.4916 -4.09445 -5.10676 -3.74664 -0.106587 -0.441817 0.0525214 -3.52913 
85 0.197922 2.15005 -8.93719 -4.08232 -5.11782 -3.78402 -0.0962369 -0.443417 0.0397575 -3.52911 
86 0.171589 2.15255 -6.38336 -4.07248 -5.12595 -3.81021 -0.0852134 -0.445144 0.0283547 -3.52909 
87 0.145201 2.15473 -3.82989 -4.06457 -5.13173 -3.82714 -0.0738353 -0.446898 0.0179968 -3.52908 
88 0.118761 2.15659 -1.27665 -4.05813 -5.13546 -3.83605 -0.0623549 -0.448425 0.00833806 -3.52907 
89 0.21519 4.3248 -0.000791558 -3.39121 -4.74254 -3.30006 -0.0733078 -0.928564 0.0360282 -3.53365 
90 0.285155 6.49731 1.27497 -2.77295 -4.34471 -2.86324 -0.0784174 -1.35571 0.0483107 -3.53383 
91 2.20497 2.7357 -5.63543e-05 -3.38839 -3.54415 -3.05095 -0.416174 -0.328207 0.245989 -3.52984 
92 2.1713 2.76248 2.55306 -3.37432 -3.55351 -3.04964 -0.41595 -0.334188 0.238118 -3.52984 
93 2.29122 4.92709 1.2753 -2.72464 -3.57082 -2.73013 -0.345639 -0.80241 0.0117142 -3.53336 
94 4.28792 3.33572 1.27703 -3.3993 -2.8981 -2.72678 -0.498153 -0.211931 0.758652 -3.53336 
95 0.162268 4.32735 2.55215 -3.3829 -4.74392 -3.29731 -0.0588 -0.928868 0.017741 -3.53366 
96 0.109344 4.32924 5.10517 -3.37735 -4.74515 -3.28828 -0.044013 -0.927804 -0.000886516 -3.53367 
97 0.205781 6.50048 3.82764 -2.76401 -4.34738 -2.85796 -0.0607441 -1.35499 0.0221755 -3.53383 
98 2.23086 4.95466 3.82833 -2.71108 -3.58011 -2.72598 -0.33607 -0.804116 -0.00435728 -3.53336 
99 0.126472 6.50261 6.38046 -2.76006 -4.35153 -2.8478 -0.0424561 -1.35321 -0.00457771 -3.53384 
100 4.2468 3.38761 3.83009 -3.38378 -2.91193 -2.72156 -0.504449 -0.226514 0.752205 -3.53336 
101 2.13728 2.78879 5.10628 -3.36124 -3.5642 -3.04165 -0.414231 -0.339597 0.230239 -3.52983 
102 2.10294 2.81462 7.65975 -3.34962 -3.57643 -3.02617 -0.410589 -0.344568 0.222159 -3.52983 
103 2.17017 4.98136 6.38152 -2.7006 -3.59112 -2.71545 -0.32449 -0.805115 -0.0206764 -3.53336 
104 4.205 3.4389 6.38333 -3.37007 -2.92864 -2.7101 -0.508484 -0.240862 0.745498 -3.53336 
105 0.0564791 4.33046 7.65841 -3.37573 -4.7463 -3.27231 -0.0287398 -0.925519 -0.0202574 -3.53368 
106 0.00373887 4.33098 10.212 -3.37947 -4.74736 -3.24845 -0.012867 -0.922462 -0.0407537 -3.53369 
107 0.0473134 6.50368 8.93356 -2.76281 -4.35736 -2.83227 -0.02355 -1.35097 -0.0324769 -3.53383 
108 2.10923 5.00718 8.93502 -2.69434 -3.60395 -2.69772 -0.310607 -0.80578 -0.0376845 -3.53336 
109 -0.0316278 6.50366 11.4871 -2.77365 -4.36502 -2.81061 -0.00419335 -1.34896 -0.0620956 -3.53382 
110 4.16257 3.48955 8.93688 -3.35882 -2.94842 -2.69161 -0.509826 -0.255336 0.738323 -3.53336 
111 2.06833 2.83993 10.2136 -3.34016 -3.59026 -3.00197 -0.404571 -0.349397 0.213635 -3.52983 
112 2.03347 2.8647 12.7681 -3.33362 -3.6055 -2.96741 -0.395809 -0.35455 0.204337 -3.52982 
113 2.04809 5.03208 11.489 -2.69349 -3.61849 -2.6717 -0.294255 -0.806678 -0.0559518 -3.53336 
114 4.11953 3.53952 11.4909 -3.35074 -2.97141 -2.66491 -0.508069 -0.270435 0.730401 -3.53336 
115 -0.0488235 4.33078 12.7662 -3.38984 -4.74817 -3.21542 0.00353825 -0.919229 -0.0627925 -3.5337 
116 -0.101171 4.32985 15.3212 -3.40769 -4.74819 -3.17145 0.0202055 -0.916359 -0.0868748 -3.5337 
117 -0.110308 6.50255 14.0412 -2.79346 -4.37445 -2.78168 0.0152993 -1.34777 -0.0940933 -3.53379 
118 1.98677 5.05604 14.0436 -2.69901 -3.6344 -2.63591 -0.275415 -0.808474 -0.0761865 -3.53336 
119 -0.188708 6.50032 16.5962 -2.82249 -4.38524 -2.74374 0.0345292 -1.34772 -0.129224 -3.53375 
120 4.07592 3.58877 14.0455 -3.34649 -2.99753 -2.62842 -0.502876 -0.286798 0.721331 -3.53336 
121 1.99839 2.8889 15.3233 -3.33059 -3.62161 -2.92039 -0.384074 -0.360619 0.193812 -3.5298 
122 1.96311 2.91251 17.8796 -3.33123 -3.63763 -2.85833 -0.369268 -0.368248 0.181498 -3.52978 
123 1.9253 5.07901 16.5991 -2.71145 -3.65103 -2.58845 -0.254175 -0.811832 -0.0992062 -3.53334 
124 4.03173 3.63729 16.601 -3.34641 -3.02654 -2.58014 -0.493971 -0.305169 0.710556 -3.53335 
125 -0.153285 4.32818 17.8771 -3.43326 -4.74639 -3.11409 0.0366967 -0.914177 -0.113588 -3.5337 
126 -0.205161 4.32578 20.4344 -3.466 -4.741 -3.04005 0.0524668 -0.912738 -0.143528 -3.53369 
127 -0.266821 6.49697 19.1521 -2.86051 -4.39649 -2.69425 0.0530812 -1.34878 -0.168287 -3.5337 
128 1.86368 5.10099 19.1557 -2.73085 -3.66735 -2.52686 -0.230666 -0.817334 -0.125863 -3.53333 
129 -0.344651 6.4925 21.7094 -2.90669 -4.40651 -2.62966 0.0705745 -1.3506 -0.211975 -3.53363 
130 3.98696 3.68502 19.1577 -3.35046 -3.05783 -2.51763 -0.481121 -0.326339 0.69737 -3.53334 
131 1.92763 2.93551 20.4372 -3.33501 -3.65201 -2.77807 -0.351391 -0.378036 0.166775 -3.52975 
132 1.89195 2.95789 22.9965 -3.34033 -3.66232 -2.676 -0.330543 -0.390417 0.149098 -3.52972 
133 1.80191 5.12194 21.7137 -2.7566 -3.68175 -2.4481 -0.20505 -0.825435 -0.156904 -3.5333 
134 3.94163 3.73194 21.7157 -3.35795 -3.09027 -2.43798 -0.464161 -0.351041 0.680981 -3.53331 
135 -0.256807 4.32266 22.9933 -3.5043 -4.72915 -2.94513 0.0669127 -0.911854 -0.177096 -3.53368 
136 -0.308237 4.31887 25.5542 -3.54484 -4.70632 -2.82443 0.0793942 -0.911188 -0.214104 -3.53369 
137 -0.422198 6.48696 24.2683 -2.95936 -4.4123 -2.54528 0.0866737 -1.35258 -0.260571 -3.53356 
138 1.73999 5.14186 24.2735 -2.78713 -3.6917 -2.34861 -0.177583 -0.836402 -0.192697 -3.53327 
139 -0.499462 6.48042 26.8293 -3.01518 -4.40891 -2.43535 0.101043 -1.354 -0.313399 -3.5335 
140 3.89573 3.77803 24.2754 -3.36719 -3.12181 -2.33794 -0.443102 -0.37976 0.660674 -3.53328 
141 1.85607 2.97967 25.5578 -3.34396 -3.66473 -2.54824 -0.307016 -0.405442 0.128275 -3.52967 
142 1.82001 3.00089 28.1217 -3.34001 -3.65326 -2.39144 -0.281525 -0.422394 0.104971 -3.52961 
143 1.67793 5.1608 26.8355 -2.81916 -3.69319 -2.2247 -0.148809 -0.850168 -0.232754 -3.53322 
144 3.8493 3.82329 26.8373 -3.37487 -3.1488 -2.21407 -0.418368 -0.41234 0.636161 -3.53323 
145 -0.359468 4.31449 28.1175 -3.58145 -4.66569 -2.67299 0.0892482 -0.910367 -0.253155 -3.53372 
146 -0.410514 4.30969 30.6838 -3.60342 -4.59776 -2.48749 0.0958749 -0.90903 -0.29094 -3.5338 
147 -0.576442 6.47305 29.3927 -3.06777 -4.38838 -2.29372 0.113234 -1.35422 -0.368025 -3.53347 
148 1.61575 5.17886 29.4001 -2.84659 -3.68011 -2.07319 -0.119887 -0.865945 -0.274961 -3.53317 
149 -0.653138 6.46512 31.9592 -3.10581 -4.33891 -2.1156 0.122559 -1.35277 -0.419511 -3.53349 
150 3.80242 3.86776 29.4017 -3.37504 -3.16497 -2.06327 -0.391159 -0.4473 0.608206 -3.53317 
151 1.78385 3.02164 30.6886 -3.31891 -3.61915 -2.20405 -0.255525 -0.439228 0.0814372 -3.52957 
152 1.74772 3.04211 33.2586 -3.26712 -3.55127 -1.98819 -0.231375 -0.452314 0.0618999 -3.52955 
153 1.55355 5.19627 31.9677 -2.85873 -3.64348 -1.89255 -0.0929138 -0.881538 -0.314711 -3.53311 
154 3.75527 3.9116 31.9692 -3.35759 -3.16034 -1.88365 -0.363747 -0.480998 0.579489 -3.53311 
155 -0.461377 4.30466 33.2534 -3.59475 -4.49119 -2.26908 0.0990207 -0.90668 -0.322291 -3.53396 
156 -0.51202 4.29963 35.8265 -3.53751 -4.3371 -2.02641 0.0992497 -0.902398 -0.34265 -3.53423 
157 -0.729533 6.45702 34.5292 -3.11156 -4.24505 -1.90131 0.128183 -1.34916 -0.46079 -3.53362 
158 1.49148 5.21337 34.5386 -2.83931 -3.57125 -1.68451 -0.0708195 -0.892675 -0.344984 -3.53308 
159 -0.805559 6.44911 37.1028 -3.06359 -4.09217 -1.66097 0.129797 -1.34206 -0.486169 -3.53389 
160 3.70817 3.95503 34.54 -3.30728 -3.12095 -1.67637 -0.339299 -0.507544 0.554998 -3.53307 
161 1.7118 3.06249 35.8321 -3.17056 -3.43959 -1.75106 -0.211729 -0.457727 0.0509069 -3.52961 
162 1.67623 3.0829 38.4086 -3.02355 -3.28233 -1.50341 -0.197695 -0.455033 0.0481055 -3.52977 
163 1.42979 5.23055 37.1129 -2.76925 -3.45069 -1.45595 -0.0562642 -0.894055 -0.359808 -3.53313 
164 3.66147 3.99835 37.1141 -3.20589 -3.03251 -1.44805 -0.320597 -0.521485 0.53992 -3.53313 
165 -0.562362 4.29465 38.4027 -3.42273 -4.13784 -1.77466 0.0982264 -0.894983 -0.353523 -3.53458 
166 -0.612308 4.28957 40.9816 -3.25789 -3.90946 -1.52621 0.0981698 -0.883888 -0.363887 -3.53492 
167 -0.881088 6.4415 39.6796 -2.9502 -3.87987 -1.41447 0.128646 -1.32972 -0.498723 -3.53425 
168 1.36871 5.24801 39.6902 -2.63796 -3.27713 -1.21868 -0.0496216 -0.884383 -0.362421 -3.5333 
169 -0.95601 6.43389 42.2588 -2.77976 -3.62829 -1.17955 0.127434 -1.31211 -0.51122 -3.53461 
170 3.61542 4.04169 39.6913 -3.04314 -2.88999 -1.21106 -0.308038 -0.524004 0.532886 -3.53329 
171 1.64102 3.10324 40.9876 -2.83444 -3.08839 -1.25296 -0.187592 -0.44946 0.0455138 -3.53 
172 1.6061 3.12338 43.5688 -2.61324 -2.86587 -0.997363 -0.178903 -0.447546 0.0348222 -3.53027 
173 1.3083 5.26559 42.2698 -2.45189 -3.05974 -0.982815 -0.0480765 -0.870143 -0.367228 -3.53355 
174 3.56997 4.08498 42.2709 -2.82643 -2.70183 -0.977135 -0.299436 -0.524897 0.523042 -3.53354 
175 -0.661841 4.28417 43.5623 -3.05422 -3.66241 -1.28051 0.100231 -0.869949 -0.382136 -3.53523 
176 -0.711127 4.27844 46.1446 -2.82377 -3.39473 -1.01764 0.103597 -0.855316 -0.413711 -3.53549 
177 -1.03039 6.42607 44.8394 -2.55935 -3.34445 -0.962874 0.127531 -1.29153 -0.52892 -3.53496 
178 1.24842 5.28314 44.851 -2.2183 -2.80331 -0.749972 -0.0498924 -0.859808 -0.385747 -3.53386 
179 -1.10458 6.41838 47.4203 -2.29598 -3.01704 -0.776388 0.129768 -1.27251 -0.542055 -3.53528 
180 3.52493 4.12813 44.852 -2.56113 -2.47544 -0.752105 -0.292139 -0.533072 0.501804 -3.53383 
181 1.57125 3.14329 46.1516 -2.36459 -2.61742 -0.719158 -0.171246 -0.456882 0.00763763 -3.53054 
182 1.53633 3.16338 48.7364 -2.08958 -2.36156 -0.347809 -0.183231 -0.479908 -0.0323437 -3.53015 
183 1.1886 5.30066 47.4331 -1.94356 -2.50522 -0.518863 -0.0633786 -0.86614 -0.430874 -3.53412 
184 3.48002 4.17121 47.4338 -2.24098 -2.22057 -0.544055 -0.286183 -0.559283 0.457718 -3.53404 
185 -0.760666 4.2734 48.7285 -2.60303 -3.07463 -0.669958 0.0971242 -0.846661 -0.419529 -3.53516 
186 -0.811621 4.26877 51.3169 -1.98839 -2.3511 0.311846 0.0838984 -0.841938 -0.653068 -3.53805 
187 -1.17889 6.41384 50.0002 -2.05731 -2.54161 -0.333489 0.0867406 -1.27781 -0.619801 -3.53573 
188 1.12775 5.31799 50.0156 -1.56925 -2.07904 -0.0212443 -0.110549 -0.94558 -0.597574 -3.53484 
189 -1.25707 6.40546 52.5877 -1.61244 -2.48694 0.643202 0.175786 -1.31623 -0.613079 -3.53282 
190 3.43505 4.21346 50.0156 -1.75907 -1.85302 -0.0391857 -0.309463 -0.668747 0.311567 -3.5349 
191 1.50027 3.18358 51.3264 -1.43164 -1.70135 0.657918 -0.172631 -0.548528 -0.13305 -3.53273 
192 1.46587 3.20964 53.9052 0.0267161 0.954007 -0.795826 0.566314 -0.560967 0.138995 -3.37565 
193 1.06597 5.33731 52.6041 -1.24917 -1.89856 0.441513 -0.236969 -0.801327 -0.410821 -3.52779 
194 3.38747 4.26008 52.6041 -1.41015 -1.71358 0.389851 -0.39067 -0.639448 0.587334 -3.52746 
195 -0.866323 4.2769 53.8949 -0.050879 -0.206105 -1.18047 0.0793698 -1.26166 1.02745 -3.38132 
196 1.3298 4.1174 -56.3442 5.06941 2.90561 1.60242 -1.25472 -0.273894 0.110261 -2.79034 
197 -1.33605 6.40133 55.1665 4.1801 2.79743 1.28998 0.319928 -1.52319 0.197851 -3.26107 
198 1.00488 5.36129 55.1754 5.64203 6.63184 2.70772 0.369839 -0.636464 -0.0326495 -3.15047 
199 1.98371 6.26223 -55.1334 6.93986 9.11552 2.9291 0.134192 -0.847904 -0.525654 -3.02309 
200 3.34328 4.30996 55.1754 5.53064 7.35762 2.86909 0.118713 -0.278644 0.562616 -3.15115 
201 2.87095 2.09325 -56.362 4.04253 6.00649 1.88098 -3.16453 0.252633 0.341779 -2.79939 
202 2.84551 2.1252 -53.8874 0.164976 0.76327 -3.02651 -0.982119 -0.732818 -0.162367 -3.51266 
203 3.53831 4.21674 -55.1525 6.03165 6.27391 1.75937 0.302437 -1.21952 -0.0444752 -3.1433 
204 5.07312 2.13635 -55.1525 6.04997 7.03886 2.00316 0.446068 -0.528123 0.0805291 -3.14511 
205 1.29262 4.16451 -53.8815 0.861255 -0.348302 -3.67507 -0.408896 -0.573877 0.839003 -3.51412 
206 1.24176 4.17585 -51.3147 -1.28695 -1.91108 -0.376141 -0.214922 -0.880465 0.220625 -3.53903 
207 1.90264 6.26187 -52.5941 -0.917909 -1.45679 -0.573051 -0.184168 -1.16801 0.820116 -3.52792 
208 3.4607 4.22944 -52.6036 -0.748857 -0.925829 0.0955028 -0.677505 -0.496042 0.191393 -3.53019 
209 1.82403 6.27282 -50.0101 -1.645 -2.32836 -0.267644 -0.199748 -1.28171 0.428655 -3.53672 
210 5.01221 2.17771 -52.6036 -1.34183 -0.348546 0.0546713 -0.502551 0.0192201 0.991514 -3.52952 
211 2.80522 2.14769 -51.32 -1.10362 -0.946803 -0.112593 -0.278119 -0.333042 0.262141 -3.53414 
212 2.77224 2.17449 -48.7405 -1.96958 -1.83779 -0.545979 -0.29094 -0.22721 0.332499 -3.53088 
213 3.40036 4.25787 -50.02 -1.43173 -1.65406 -0.139909 -0.408542 -0.709871 0.283763 -3.53497 
214 4.971 2.23184 -50.02 -1.84373 -1.27414 -0.113659 -0.296492 0.0197464 0.833914 -3.53501 
215 1.18963 4.18027 -48.7356 -2.17848 -2.75871 -0.790765 -0.179761 -0.850474 0.275765 -3.5364 
216 1.13965 4.18606 -46.1541 -2.63711 -3.19308 -0.976882 -0.162662 -0.83372 0.395826 -3.53604 
217 1.74856 6.27835 -47.4306 -2.1008 -2.83556 -0.679299 -0.212512 -1.24129 0.539814 -3.53588 
218 3.34498 4.28725 -47.4411 -1.89878 -2.21007 -0.563317 -0.300353 -0.641014 0.331335 -3.53414 
219 1.67458 6.2899 -44.8495 -2.47011 -3.19263 -0.865568 -0.198566 -1.24457 0.599282 -3.53534 
220 4.93477 2.28427 -47.4403 -2.32242 -1.78981 -0.54111 -0.211391 0.103254 0.861747 -3.5342 
221 2.74188 2.20155 -46.1594 -2.3645 -2.26997 -0.738635 -0.230076 -0.163898 0.388287 -3.53074 
222 2.71344 2.23002 -43.5776 -2.67675 -2.59337 -0.949117 -0.213321 -0.152049 0.408966 -3.53037 
223 3.29142 4.31925 -44.8605 -2.23417 -2.5753 -0.717913 -0.258979 -0.626387 0.367179 -3.53392 
224 4.90181 2.33718 -44.8595 -2.65718 -2.14515 -0.722116 -0.17641 0.141189 0.893417 -3.53393 
225 1.09043 4.19439 -43.5722 -2.976 -3.51304 -1.20385 -0.14933 -0.841523 0.421836 -3.53553 
226 1.04112 4.20348 -40.9911 -3.23599 -3.78824 -1.44448 -0.146641 -0.854641 0.42865 -3.53509 
227 1.60081 6.30321 -42.2685 -2.75273 -3.49888 -1.09169 -0.197394 -1.26231 0.615341 -3.53484 
228 3.23879 4.35275 -42.2796 -2.50767 -2.87212 -0.917028 -0.241399 -0.628508 0.385126 -3.5336 
229 1.52657 6.31725 -39.6887 -2.96367 -3.76611 -1.335 -0.203988 -1.28158 0.619219 -3.53439 
230 4.87037 2.391 -42.2786 -2.94037 -2.42802 -0.927182 -0.165172 0.153173 0.918754 -3.5336 
231 2.68555 2.25925 -40.9964 -2.93281 -2.85527 -1.17863 -0.21022 -0.149965 0.423045 -3.53006 
232 2.65776 2.28911 -38.4168 -3.1464 -3.07053 -1.42034 -0.214755 -0.149254 0.434592 -3.52981 
233 3.18638 4.38734 -39.6996 -2.72508 -3.11248 -1.14017 -0.235618 -0.633441 0.395656 -3.53333 
234 4.83953 2.44582 -39.6986 -3.17726 -2.64642 -1.15045 -0.165425 0.158019 0.940583 -3.53333 
235 0.991437 4.21287 -38.4116 -3.43562 -4.03265 -1.69516 -0.15142 -0.867202 0.429894 -3.53468 
236 0.941319 4.2225 -35.8345 -3.57658 -4.24298 -1.95052 -0.160764 -0.87741 0.42468 -3.53431 
237 1.45169 6.33181 -37.1111 -3.10594 -3.98975 -1.5868 -0.214546 -1.29764 0.61428 -3.53398 
238 3.13396 4.4229 -37.1217 -2.88664 -3.29638 -1.37358 -0.238751 -0.63996 0.397941 -3.53315 
239 1.37623 6.34693 -34.5366 -3.18048 -4.15868 -1.83331 -0.224787 -1.31003 0.595603 -3.53367 
240 4.80898 2.50164 -37.1207 -3.36479 -2.8032 -1.38271 -0.175408 0.157646 0.954577 -3.53315 
241 2.62998 2.31955 -35.8395 -3.31651 -3.23956 -1.66648 -0.22634 -0.151285 0.440411 -3.52964 
242 2.60217 2.3505 -33.2651 -3.43858 -3.36026 -1.90666 -0.244763 -0.159372 0.436668 -3.52955 
243 3.08144 4.45932 -34.5466 -2.99017 -3.4225 -1.6036 -0.250104 -0.651282 0.386776 -3.53306 
244 4.77865 2.55833 -34.5455 -3.49764 -2.9004 -1.61192 -0.195251 0.147126 0.955718 -3.53306 
245 0.890835 4.23238 -33.2605 -3.6583 -4.41028 -2.1991 -0.171301 -0.885489 0.40896 -3.53401 
246 0.84006 4.24241 -30.6899 -3.68829 -4.53183 -2.42735 -0.180025 -0.892241 0.381685 -3.5338 
247 1.3003 6.36244 -31.9656 -3.19734 -4.27092 -2.05827 -0.231651 -1.31978 0.560882 -3.53349 
248 3.02871 4.4963 -31.9747 -3.04044 -3.49807 -1.81753 -0.267991 -0.668335 0.361022 -3.53307 
249 1.22397 6.37801 -29.3981 -3.17441 -4.33618 -2.25066 -0.234097 -1.32744 0.513676 -3.53342 
250 4.74838 2.61562 -31.9735 -3.57829 -2.94743 -1.82585 -0.223394 0.124068 0.943899 -3.53306 
251 2.57425 2.38176 -30.6939 -3.51406 -3.43686 -2.12962 -0.268254 -0.174127 0.42316 -3.52954 
252 2.54609 2.41312 -28.126 -3.55151 -3.47988 -2.32695 -0.293887 -0.193148 0.40323 -3.52958 
253 2.97561 4.53343 -29.4062 -3.04993 -3.53713 -2.00709 -0.289422 -0.688673 0.325183 -3.53312 
254 4.71787 2.67317 -29.4048 -3.61718 -2.9596 -2.01589 -0.256462 0.0912933 0.923577 -3.53311 
255 0.789031 4.25239 -28.1227 -3.68126 -4.61352 -2.62566 -0.185146 -0.898077 0.346017 -3.53368 
256 0.737765 4.26209 -25.5585 -3.65242 -4.6651 -2.7905 -0.186103 -0.903004 0.306578 -3.53363 
257 1.14726 6.39325 -26.8339 -3.12926 -4.36822 -2.40718 -0.232291 -1.33306 0.460101 -3.53342 
258 2.92198 4.57033 -26.8408 -3.03282 -3.5534 -2.16893 -0.311151 -0.709243 0.285262 -3.53318 
259 1.07019 6.40784 -24.2724 -3.07514 -4.37939 -2.53018 -0.226721 -1.33682 0.405581 -3.53347 
260 4.68682 2.73069 -26.8393 -3.62672 -2.95156 -2.17803 -0.290822 0.053752 0.899748 -3.53316 
261 2.51753 2.44435 -25.5611 -3.56196 -3.50093 -2.49472 -0.318915 -0.213424 0.380852 -3.52963 
262 2.4885 2.47532 -22.9989 -3.55533 -3.50944 -2.63283 -0.341493 -0.232775 0.358879 -3.52968 
263 2.86771 4.60671 -24.2781 -3.00099 -3.55713 -2.30319 -0.33064 -0.72793 0.245793 -3.53323 
264 4.65502 2.78799 -24.2765 -3.61767 -2.93426 -2.312 -0.323802 0.0157788 0.875978 -3.53321 
265 0.68627 4.27134 -22.9969 -3.61359 -4.69604 -2.9231 -0.183113 -0.906993 0.267181 -3.5336 
266 0.63456 4.28 -20.4376 -3.57257 -4.71386 -3.02727 -0.176751 -0.910153 0.23014 -3.5336 
267 0.992792 6.42155 -21.7131 -3.02063 -4.37892 -2.62461 -0.217931 -1.33921 0.353616 -3.53353 
268 2.81276 4.6424 -21.7177 -2.9629 -3.55506 -2.41201 -0.346431 -0.743765 0.209279 -3.53327 
269 0.915087 6.43426 -19.1556 -2.97058 -4.37293 -2.69598 -0.206505 -1.34082 0.305901 -3.5336 
270 4.62232 2.84493 -21.7161 -3.59807 -2.91478 -2.41995 -0.353918 -0.0198756 0.854256 -3.53326 
271 2.45894 2.50594 -20.439 -3.53911 -3.51189 -2.74371 -0.360719 -0.250077 0.338822 -3.52972 
272 2.42885 2.53615 -17.8809 -3.51839 -3.51227 -2.83094 -0.37638 -0.265005 0.321219 -3.52976 
273 2.75713 4.67731 -19.1593 -2.92393 -3.55122 -2.49851 -0.358014 -0.756626 0.176674 -3.5333 
274 4.58869 2.90144 -19.1576 -3.57343 -2.89719 -2.5052 -0.38059 -0.0519401 0.835416 -3.53329 
275 0.582656 4.28802 -17.8799 -3.53394 -4.72387 -3.10763 -0.167696 -0.91272 0.196477 -3.53361 
276 0.53058 4.29535 -15.3237 -3.49997 -4.72954 -3.1687 -0.156606 -0.914983 0.166363 -3.53362 
277 0.83711 6.4459 -16.5995 -2.9272 -4.36515 -2.7493 -0.193046 -1.34221 0.262874 -3.53366 
278 2.70085 4.7114 -16.6023 -2.88715 -3.54784 -2.56612 -0.365508 -0.766872 0.148 -3.53332 
279 0.758885 6.45646 -14.0444 -2.891 -4.35769 -2.7887 -0.178136 -1.34379 0.224264 -3.53371 
280 4.55411 2.95747 -16.6007 -3.54719 -2.88349 -2.57141 -0.403796 -0.0801739 0.81957 -3.53331 
281 2.39825 2.56594 -15.3243 -3.49637 -3.51279 -2.89837 -0.388678 -0.277724 0.306038 -3.52978 
282 2.36716 2.59531 -12.7687 -3.47485 -3.51452 -2.9496 -0.398018 -0.288624 0.292974 -3.5298 
283 2.64395 4.74466 -14.0466 -2.85405 -3.54601 -2.61811 -0.36937 -0.77506 0.122807 -3.53334 
284 4.51861 3.01302 -14.0449 -3.52139 -2.87438 -2.62203 -0.423811 -0.104923 0.806442 -3.53333 
285 0.47835 4.30199 -12.7685 -3.47145 -4.73299 -3.21438 -0.144062 -0.917218 0.139513 -3.53363 
286 0.425975 4.30792 -10.2141 -3.44818 -4.73542 -3.24788 -0.130551 -0.919611 0.11544 -3.53363 
287 0.680426 6.46592 -11.4902 -2.86143 -4.35156 -2.8174 -0.162289 -1.3458 0.189467 -3.53374 
288 2.58647 4.77709 -11.4918 -2.825 -3.54608 -2.65741 -0.370193 -0.781755 0.100468 -3.53335 
289 0.601744 6.4743 -8.93654 -2.83732 -4.34713 -2.83782 -0.145912 -1.34826 0.157772 -3.53377 
290 4.48222 3.06807 -11.4901 -3.49703 -2.86979 -2.66004 -0.441048 -0.126791 0.795575 -3.53334 
291 2.3356 2.62424 -10.2141 -3.45471 -3.51781 -2.98775 -0.404888 -0.298148 0.281623 -3.52981 
292 2.30358 2.65274 -7.66006 -3.43618 -3.52261 -3.01533 -0.409775 -0.306674 0.271581 -3.52982 
293 2.52842 4.8087 -8.93767 -2.79974 -3.54803 -2.68645 -0.36858 -0.787401 0.0803377 -3.53335 
294 4.44497 3.12263 -8.93598 -3.47446 -2.86929 -2.68786 -0.455947 -0.146419 0.786462 -3.53335 
295 0.373463 4.31316 -7.66029 -3.42942 -4.73743 -3.27168 -0.116474 -0.922194 0.0935999 -3.53364 
296 0.320819 4.31771 -5.10689 -3.41421 -4.73927 -3.28761 -0.102133 -0.924799 0.0734431 -3.53364 
297 0.522849 6.48162 -6.38332 -2.81729 -4.3444 -2.85169 -0.129281 -1.35094 0.128467 -3.53379 
298 2.46985 4.8395 -6.38405 -2.77766 -3.55164 -2.70713 -0.365053 -0.792265 0.061838 -3.53336 
299 0.443758 6.48788 -3.83041 -2.80018 -4.34319 -2.86018 -0.112522 -1.35341 0.100876 -3.53381 
300 4.40689 3.17668 -6.38235 -3.45361 -2.87229 -2.70736 -0.468907 -0.16437 0.778613 -3.53336 
301 2.27113 2.68082 -5.10648 -3.41914 -3.52871 -3.03427 -0.413109 -0.314458 0.262488 -3.52983 
302 2.23825 2.70847 -2.5532 -3.4033 -3.53592 -3.0459 -0.415199 -0.321626 0.254042 -3.52983 
303 2.41077 4.8695 -3.83077 -2.75806 -3.55669 -2.72083 -0.35998 -0.79643 0.0444867 -3.53336 
304 4.368 3.23023 -3.82907 -3.43427 -2.87827 -2.71986 -0.480214 -0.181079 0.771594 -3.53336 
305 0.268053 4.32159 -2.55377 -3.40165 -4.74099 -3.29686 -0.0877247 -0.927074 0.0544286 -3.53365 
306 0.364507 6.49311 -1.27768 -2.78534 -4.34333 -2.86395 -0.0956144 -1.35514 0.0743572 -3.53382 
307 2.35121 4.8987 -1.27769 -2.74043 -3.56307 -2.72838 -0.353528 -0.799842 0.02789 -3.53336 
308 4.32833 3.28324 -1.27599 -3.41619 -2.88691 -2.72621 -0.489988 -0.196856 0.765038 -3.53336 
309 2.43623 7.09098 -0.00153846 -2.216 -3.3603 -2.40103 -0.317057 -1.20525 -0.187722 -3.53291 
310 0.434487 8.66816 -0.00180545 -2.248 -4.0162 -2.49647 -0.0991519 -1.74171 0.0831833 -3.53357 