ITEM: TIMESTEP
409
ITEM: NUMBER OF ATOMS
37664
ITEM: BOX BOUNDS ff ff ff
-100 100
-100 100
-156.15 156.15
ITEM: ATOMS id x y z v_peratom_sxx v_peratom_syy v_peratom_szz v_peratom_sxy v_peratom_sxz v_peratom_syz c_atomPE 
1 -0.00391404 -0.00205616 0.000931874 -5.17825 -5.16967 -9.53909 0.00106244 -0.013417 -0.0361897 -3.51527 
2 -0.00412655 -0.00180374 2.55415 -5.17756 -5.16902 -9.53767 0.000303276 -0.0143937 -0.0355296 -3.51527 
3 -0.00435388 -0.00150865 5.10744 -5.17234 -5.16429 -9.52638 -0.000715504 -0.0138227 -0.0348824 -3.51531 
4 -0.00458895 -0.00117818 7.66095 -5.16178 -5.15491 -9.50381 -0.00196886 -0.0112255 -0.0343229 -3.51541 
5 -0.004814 -0.000827847 10.2148 -5.14498 -5.14003 -9.46795 -0.00334998 -0.0065048 -0.0337768 -3.51558 
6 -0.00500358 -0.000477306 12.7693 -5.12087 -5.1185 -9.41627 -0.00469486 -2.0947e-05 -0.0330404 -3.51581 
7 -0.00513036 -0.000145201 15.3245 -5.08817 -5.08874 -9.34564 -0.00583424 0.00749449 -0.0318719 -3.51614 
8 -0.00517163 0.000154854 17.8809 -5.04501 -5.04858 -9.25224 -0.00664306 0.0151391 -0.0300981 -3.51657 
9 -0.00511404 0.000415754 20.4386 -4.98866 -4.99494 -9.13138 -0.00706653 0.0220598 -0.0276862 -3.51712 
10 -0.00495549 0.000635957 22.9981 -4.91523 -4.92369 -8.97757 -0.00712047 0.0276194 -0.0247636 -3.51781 
11 -0.00470419 0.000817027 25.5598 -4.81943 -4.82941 -8.78514 -0.00687439 0.0314798 -0.0215914 -3.51867 
12 -0.00437563 0.000960829 28.1242 -4.69487 -4.7057 -8.54989 -0.00642679 0.0336072 -0.0185062 -3.5197 
13 -0.00398857 0.00106739 30.6916 -4.53558 -4.54666 -8.27221 -0.00587948 0.0342174 -0.0158403 -3.5209 
14 -0.00356093 0.00113403 33.2622 -4.33983 -4.3507 -7.96077 -0.00531568 0.0336867 -0.0138433 -3.52219 
15 -0.00310653 0.00115563 35.836 -4.11535 -4.12569 -7.633 -0.00478681 0.0324541 -0.0126342 -3.52346 
16 -0.00263329 0.00112536 38.4127 -3.87808 -3.88769 -7.30719 -0.00431003 0.030929 -0.0122033 -3.52457 
17 -0.00214247 0.00103496 40.9919 -3.63958 -3.64835 -6.98974 -0.00387222 0.0294346 -0.012467 -3.52546 
18 -0.00162646 0.000873502 43.5732 -3.40085 -3.40865 -6.66788 -0.00342885 0.0282635 -0.0133467 -3.52619 
19 -0.00106491 0.000624913 46.157 -3.1368 -3.14331 -6.30475 -0.00287195 0.0276868 -0.0147893 -3.52693 
20 -0.00043106 0.000264134 48.7436 -2.75384 -2.75742 -5.86479 -0.00160335 0.0272307 -0.0166874 -3.52781 
21 5.95933e-07 -4.11185e-08 51.3317 -1.92312 -1.92285 -4.9207 0.000130538 -0.00138902 0.000873052 -3.53204 
22 4.01304e-07 -1.42881e-06 53.9138 -0.851958 -0.851969 -8.91782 -2.35182e-07 -3.04385e-05 -7.20295e-05 -3.48168 
23 8.71386e-07 -1.98378e-06 56.3885 1.68558 1.68558 1.87682 -1.78483e-05 2.64233e-05 -2.75006e-08 -2.55581 
24 -1.23087e-07 -1.12453e-06 -53.8876 -2.60686 -2.60689 -6.54956 -1.69786e-05 8.22771e-06 -3.35753e-05 -3.40183 
25 1.02659e-07 -1.55837e-06 -51.3239 -2.07928 -2.07939 -5.58005 -0.000390032 0.000856574 0.00214042 -3.52873 
26 -0.000219931 -0.000606953 -48.7463 -2.69565 -2.69357 -6.14963 0.00518486 -0.0138991 -0.0379463 -3.52639 
27 -0.000503709 -0.00145449 -46.1646 -3.02292 -3.01903 -6.34998 0.00917754 -0.0115809 -0.0352391 -3.52677 
28 -0.000702274 -0.00209345 -43.5822 -3.30469 -3.29889 -6.61037 0.0102033 -0.0075597 -0.0330494 -3.52634 
29 -0.000821713 -0.00257522 -41.0008 -3.56054 -3.55248 -6.89857 0.0103149 -0.00338365 -0.0314332 -3.52574 
30 -0.000888608 -0.00293052 -38.421 -3.81121 -3.80084 -7.20705 0.00983237 0.000514485 -0.0301906 -3.5249 
31 -0.000932297 -0.00317846 -35.8435 -4.05788 -4.04543 -7.53177 0.00891282 0.0037153 -0.0292278 -3.52384 
32 -0.000982437 -0.0033345 -33.2686 -4.29111 -4.27708 -7.86162 0.00771808 0.00581957 -0.028583 -3.52261 
33 -0.00106537 -0.00341414 -30.6969 -4.4978 -4.48288 -8.17904 0.00643818 0.0065856 -0.0283444 -3.52133 
34 -0.00119959 -0.00343304 -28.1284 -4.66944 -4.65436 -8.467 0.00525798 0.00602997 -0.0285738 -3.52011 
35 -0.00139238 -0.0034055 -25.5629 -4.80509 -4.79049 -8.715 0.00431072 0.00443913 -0.029258 -3.51903 
36 -0.00163904 -0.00334319 -23.0002 -4.90883 -4.89518 -8.92016 0.00364876 0.00228173 -0.0303003 -3.51811 
37 -0.00192492 -0.00325472 -20.4398 -4.9866 -4.97416 -9.08491 0.00324376 5.08659e-05 -0.0315558 -3.51737 
38 -0.00222969 -0.00314649 -17.8813 -5.04425 -5.03304 -9.2143 0.00301364 -0.00189771 -0.032878 -3.51678 
39 -0.00253268 -0.0030238 -15.3243 -5.08671 -5.0766 -9.31408 0.0028624 -0.00344819 -0.0341464 -3.51632 
40 -0.00281764 -0.00289124 -12.7686 -5.11782 -5.10857 -9.38967 0.00271449 -0.00472769 -0.0352662 -3.51597 
41 -0.00307565 -0.00275188 -10.2137 -5.14044 -5.13178 -9.44578 0.00252937 -0.00600866 -0.0361519 -3.51571 
42 -0.00330595 -0.00260548 -7.6595 -5.15665 -5.1483 -9.48625 0.00229296 -0.00755271 -0.0367193 -3.51552 
43 -0.00351486 -0.00244719 -5.10576 -5.16787 -5.15957 -9.51406 0.00199445 -0.00945764 -0.0369039 -3.51539 
44 -0.00371341 -0.00226777 -2.55233 -5.17496 -5.16654 -9.53129 0.00160344 -0.0115593 -0.0366999 -3.51531 
45 0.0922822 2.15813 1.27649 -4.05366 -5.13701 -3.83743 -0.0507282 -0.450337 -0.000194434 -3.52907 
46 0.06573 2.1594 3.82964 -4.04825 -5.13666 -3.83125 -0.0397799 -0.450282 -0.0097203 -3.52909 
47 0.0391773 2.16036 6.38295 -4.04362 -5.13415 -3.81664 -0.0287672 -0.44882 -0.0196873 -3.52911 
48 0.0126671 2.161 8.93655 -4.04048 -5.12923 -3.79243 -0.0174541 -0.44603 -0.0302968 -3.52914 
49 -0.0137541 2.16129 11.4906 -4.03978 -5.12147 -3.75706 -0.00568443 -0.442297 -0.0416954 -3.52918 
50 -0.0400446 2.16123 14.0454 -4.04237 -5.11007 -3.70853 0.00650693 -0.438173 -0.0540516 -3.52923 
51 -0.0661743 2.16079 16.6011 -4.04862 -5.09374 -3.64424 0.0188509 -0.434203 -0.0676188 -3.52928 
52 -0.0921283 2.15997 19.158 -4.05815 -5.07051 -3.56087 0.0308678 -0.430789 -0.082742 -3.52935 
53 -0.117906 2.15878 21.7165 -4.06945 -5.03744 -3.45432 0.0419267 -0.428131 -0.0997748 -3.52943 
54 -0.14352 2.15724 24.277 -4.07933 -4.99024 -3.31997 0.0513205 -0.426223 -0.118863 -3.52953 
55 -0.168989 2.15538 26.8398 -4.08205 -4.92295 -3.15341 0.0583671 -0.424882 -0.139542 -3.52967 
56 -0.194336 2.15327 29.4054 -4.06824 -4.82784 -2.95214 0.0625806 -0.423795 -0.160175 -3.52986 
57 -0.219574 2.151 31.9742 -4.02471 -4.69681 -2.71823 0.0639562 -0.42255 -0.177646 -3.53012 
58 -0.2447 2.14866 34.5463 -3.93773 -4.52546 -2.46058 0.063285 -0.420658 -0.188488 -3.53047 
59 -0.269685 2.14629 37.1216 -3.80182 -4.31919 -2.19338 0.0621154 -0.417567 -0.192444 -3.53087 
60 -0.29448 2.14381 39.6996 -3.62536 -4.09267 -1.92802 0.0620062 -0.412854 -0.194574 -3.53128 
61 -0.319059 2.14113 42.2798 -3.42034 -3.8566 -1.66476 0.0636647 -0.40666 -0.201004 -3.53164 
62 -0.343452 2.13816 44.8621 -3.1934 -3.6078 -1.39207 0.0663341 -0.399576 -0.218392 -3.53193 
63 -0.367814 2.13511 47.4464 -2.91504 -3.29624 -1.10661 0.0667114 -0.393934 -0.238749 -3.53223 
64 -0.392512 2.13371 50.032 -2.43247 -2.8015 -0.493586 0.0610102 -0.413268 -0.205411 -3.53324 
65 -0.418483 2.1304 52.6263 -1.7658 -2.00549 -0.561401 0.0454837 -0.308941 -0.729993 -3.52457 
66 -0.44812 2.14653 55.1778 6.97662 7.73844 2.43088 0.0330231 -0.597319 1.7702 -3.02528 
67 0.649859 2.05055 -55.162 1.38946 0.842411 -0.678301 -0.188251 -0.0991971 1.20762 -3.26036 
68 0.633027 2.08274 -52.6122 -1.11199 -2.21871 -0.457713 -0.374492 -0.489289 -0.161432 -3.53567 
69 0.607028 2.08678 -50.0319 -2.00576 -2.55635 -0.876355 -0.169093 -0.429629 0.0762141 -3.53397 
70 0.581291 2.08803 -47.4533 -2.63896 -3.07304 -1.21137 -0.125061 -0.403098 0.147347 -3.5329 
71 0.556465 2.09137 -44.8713 -3.06102 -3.44265 -1.36958 -0.103552 -0.397346 0.19203 -3.53225 
72 0.531837 2.09554 -42.2894 -3.36064 -3.72816 -1.59791 -0.0943199 -0.40096 0.204385 -3.53182 
73 0.507109 2.09996 -39.7088 -3.60501 -3.98408 -1.84812 -0.0927177 -0.406303 0.210893 -3.5314 
74 0.482181 2.10451 -37.1301 -3.80794 -4.22198 -2.11129 -0.0968774 -0.411351 0.214842 -3.53097 
75 0.457043 2.10917 -34.5539 -3.96619 -4.43675 -2.38025 -0.105109 -0.41574 0.213913 -3.53055 
76 0.431719 2.11395 -31.9808 -4.07536 -4.6186 -2.64294 -0.115064 -0.419754 0.205409 -3.53017 
77 0.406234 2.11877 -29.411 -4.13869 -4.76229 -2.88569 -0.124201 -0.423635 0.189341 -3.52987 
78 0.380597 2.12355 -26.8444 -4.16652 -4.86996 -3.09853 -0.130655 -0.427345 0.168319 -3.52965 
79 0.354818 2.12818 -24.2807 -4.17078 -4.94799 -3.27727 -0.133596 -0.430717 0.145437 -3.52948 
80 0.328906 2.13259 -21.7195 -4.16145 -5.00361 -3.4225 -0.133019 -0.433612 0.122983 -3.52936 
81 0.302881 2.13671 -19.1604 -4.14563 -5.04311 -3.53761 -0.129362 -0.435999 0.102225 -3.52927 
82 0.276764 2.14053 -16.6029 -4.1279 -5.07132 -3.62703 -0.123214 -0.437962 0.0836566 -3.52921 
83 0.250576 2.14403 -14.0468 -4.11097 -5.09171 -3.69527 -0.115152 -0.439683 0.0673011 -3.52916 
84 0.224329 2.14719 -11.4916 -4.0962 -5.10664 -3.74636 -0.105686 -0.44138 0.0529511 -3.52913 
85 0.19803 2.15002 -8.93724 -4.08399 -5.11768 -3.78367 -0.0952561 -0.443228 0.0403084 -3.5291 
86 0.171678 2.15252 -6.38339 -4.07419 -5.12582 -3.80986 -0.0842514 -0.445276 0.0290427 -3.52909 
87 0.145269 2.15469 -3.82991 -4.06627 -5.1316 -3.82688 -0.0730109 -0.447386 0.0187979 -3.52907 
88 0.118801 2.15656 -1.27666 -4.0596 -5.13531 -3.83591 -0.0617934 -0.449226 0.00918661 -3.52907 
89 0.215211 4.32478 -0.000781808 -3.3923 -4.74233 -3.30014 -0.0733324 -0.929745 0.0365258 -3.53365 
90 0.285122 6.49731 1.27497 -2.77216 -4.34435 -2.86315 -0.0788951 -1.35663 0.0485322 -3.53382 
91 2.20498 2.73568 -6.20802e-05 -3.38919 -3.54382 -3.05067 -0.416091 -0.328613 0.246188 -3.52984 
92 2.17128 2.76248 2.55306 -3.37439 -3.55296 -3.04954 -0.416198 -0.334676 0.238218 -3.52984 
93 2.29121 4.92709 1.2753 -2.72474 -3.5703 -2.73025 -0.345992 -0.803153 0.0116317 -3.53336 
94 4.28791 3.33571 1.27703 -3.39945 -2.89771 -2.72662 -0.498308 -0.212268 0.758749 -3.53336 
95 0.162231 4.32735 2.55215 -3.3824 -4.74359 -3.29731 -0.0592148 -0.92987 0.0181421 -3.53366 
96 0.109248 4.32925 5.10516 -3.37523 -4.74472 -3.28811 -0.0446797 -0.928421 -0.000614362 -3.53367 
97 0.205683 6.50049 3.82764 -2.76144 -4.34694 -2.85768 -0.0613125 -1.3555 0.0223325 -3.53383 
98 2.2308 4.95466 3.82833 -2.70998 -3.57952 -2.72613 -0.336577 -0.804718 -0.00447568 -3.53336 
99 0.126323 6.50262 6.38044 -2.75618 -4.35104 -2.84732 -0.0429578 -1.35328 -0.00447692 -3.53384 
100 4.24676 3.38762 3.83009 -3.38321 -2.91146 -2.72144 -0.50478 -0.226881 0.752229 -3.53336 
101 2.13722 2.7888 5.10628 -3.36042 -3.56352 -3.0417 -0.414733 -0.34005 0.230254 -3.52984 
102 2.10285 2.81464 7.65974 -3.3479 -3.57573 -3.0263 -0.411206 -0.344867 0.222134 -3.52983 
103 2.17007 4.98137 6.38152 -2.69841 -3.59055 -2.71554 -0.325008 -0.805457 -0.0207753 -3.53336 
104 4.20493 3.43891 6.38333 -3.36876 -2.92814 -2.71002 -0.5089 -0.241182 0.745461 -3.53336 
105 0.0563359 4.33047 7.65839 -3.37226 -4.74582 -3.27194 -0.0294744 -0.925662 -0.0201032 -3.53369 
106 0.00356242 4.331 10.212 -3.37512 -4.74691 -3.24789 -0.0135038 -0.922165 -0.0406769 -3.5337 
107 0.0471312 6.50369 8.93353 -2.75819 -4.35689 -2.83162 -0.0238723 -1.35065 -0.0324058 -3.53384 
108 2.1091 5.00719 8.93501 -2.69136 -3.60346 -2.6977 -0.311011 -0.80581 -0.0377107 -3.53336 
109 -0.0318244 6.50368 11.4871 -2.76885 -4.3646 -2.80987 -0.00428779 -1.34837 -0.0620267 -3.53382 
110 4.16247 3.48956 8.93688 -3.35689 -2.94794 -2.69153 -0.510225 -0.255537 0.738255 -3.53336 
111 2.0682 2.83995 10.2136 -3.33768 -3.58963 -3.00209 -0.405155 -0.349461 0.213625 -3.52983 
112 2.03333 2.86472 12.768 -3.33064 -3.60499 -2.96744 -0.396249 -0.354352 0.204389 -3.52982 
113 2.04793 5.03209 11.489 -2.69007 -3.6181 -2.67152 -0.294475 -0.806411 -0.0558705 -3.53336 
114 4.11942 3.53953 11.4909 -3.34838 -2.97098 -2.66479 -0.50837 -0.27047 0.73034 -3.53336 
115 -0.0490165 4.3308 12.7662 -3.38513 -4.74776 -3.21472 0.00310395 -0.918593 -0.0627464 -3.5337 
116 -0.101365 4.32987 15.3211 -3.40307 -4.74784 -3.17068 0.0200096 -0.915498 -0.0868229 -3.5337 
117 -0.110503 6.50256 14.0412 -2.7889 -4.37408 -2.78092 0.0154259 -1.34701 -0.0940077 -3.5338 
118 1.98661 5.05604 14.0436 -2.6955 -3.63411 -2.63556 -0.275433 -0.807969 -0.0759864 -3.53336 
119 -0.188887 6.50033 16.5961 -2.81848 -4.38492 -2.74301 0.0348344 -1.34687 -0.129113 -3.53375 
120 4.07579 3.58878 14.0455 -3.3439 -2.99718 -2.62823 -0.503032 -0.286654 0.721308 -3.53336 
121 1.99825 2.88891 15.3233 -3.3274 -3.62124 -2.92028 -0.384314 -0.360183 0.193954 -3.5298 
122 1.96297 2.91252 17.8795 -3.32808 -3.63738 -2.85806 -0.369298 -0.36763 0.181735 -3.52978 
123 1.92515 5.07901 16.599 -2.70813 -3.65084 -2.58796 -0.254007 -0.811166 -0.0988959 -3.53335 
124 4.0316 3.63729 16.601 -3.34382 -3.02626 -2.57988 -0.493965 -0.304864 0.710591 -3.53335 
125 -0.153466 4.3282 17.8771 -3.42907 -4.7461 -3.11329 0.0367232 -0.9132 -0.113508 -3.5337 
126 -0.205322 4.32579 20.4343 -3.46245 -4.74076 -3.03927 0.0526695 -0.911744 -0.143411 -3.53369 
127 -0.266976 6.49697 19.1521 -2.85725 -4.39623 -2.69358 0.0535055 -1.34794 -0.168146 -3.5337 
128 1.86354 5.10098 19.1556 -2.72794 -3.66724 -2.52625 -0.230349 -0.816588 -0.125465 -3.53333 
129 -0.344776 6.4925 21.7094 -2.90426 -4.4063 -2.62907 0.0710544 -1.34984 -0.211808 -3.53363 
130 3.98685 3.68502 19.1576 -3.34804 -3.05763 -2.51729 -0.480965 -0.32591 0.69747 -3.53334 
131 1.9275 2.93551 20.4371 -3.33212 -3.65187 -2.77765 -0.351232 -0.377306 0.167096 -3.52976 
132 1.89183 2.95789 22.9964 -3.33784 -3.66227 -2.67546 -0.330235 -0.389645 0.14948 -3.52972 
133 1.8018 5.12193 21.7137 -2.75423 -3.68171 -2.44741 -0.20463 -0.824681 -0.156449 -3.53331 
134 3.94153 3.73194 21.7156 -3.35582 -3.09014 -2.43757 -0.463883 -0.350535 0.681143 -3.53332 
135 -0.256941 4.32267 22.9932 -3.5015 -4.72895 -2.9444 0.0672325 -0.910932 -0.17694 -3.53369 
136 -0.308342 4.31887 25.5541 -3.54281 -4.70617 -2.82378 0.0797701 -0.910405 -0.213916 -3.53369 
137 -0.422292 6.48696 24.2683 -2.95773 -4.41217 -2.54479 0.0871513 -1.35197 -0.260385 -3.53356 
138 1.7399 5.14185 24.2735 -2.78533 -3.69169 -2.3479 -0.177113 -0.835704 -0.19222 -3.53327 
139 -0.499529 6.48041 26.8292 -3.01422 -4.40883 -2.43498 0.101473 -1.35356 -0.313203 -3.5335 
140 3.89565 3.77802 24.2754 -3.36542 -3.12174 -2.33748 -0.442741 -0.379226 0.660884 -3.53328 
141 1.85597 2.97966 25.5578 -3.34194 -3.66473 -2.54762 -0.306612 -0.404693 0.128689 -3.52967 
142 1.81994 3.00088 28.1217 -3.33848 -3.6533 -2.39079 -0.281081 -0.421718 0.105387 -3.52962 
143 1.67786 5.16079 26.8355 -2.81791 -3.69321 -2.224 -0.148341 -0.84957 -0.232289 -3.53323 
144 3.84923 3.82327 26.8373 -3.3735 -3.14876 -2.21358 -0.41797 -0.411821 0.636401 -3.53323 
145 -0.359546 4.31449 28.1175 -3.58011 -4.66559 -2.67244 0.0896249 -0.909763 -0.252946 -3.53372 
146 -0.410569 4.30968 30.6838 -3.60263 -4.59769 -2.48705 0.0962097 -0.908607 -0.290728 -3.5338 
147 -0.576486 6.47304 29.3927 -3.06732 -4.38836 -2.29345 0.113588 -1.35394 -0.367831 -3.53347 
148 1.6157 5.17885 29.4 -2.84579 -3.68013 -2.07254 -0.119466 -0.865472 -0.274537 -3.53317 
149 -0.653165 6.46511 31.9592 -3.10569 -4.33892 -2.11543 0.122827 -1.35263 -0.419331 -3.53349 
150 3.80237 3.86775 29.4017 -3.37403 -3.16495 -2.06278 -0.390766 -0.446832 0.608456 -3.53317 
151 1.7838 3.02163 30.6885 -3.31782 -3.61919 -2.20341 -0.255094 -0.438659 0.0818264 -3.52957 
152 1.74768 3.0421 33.2586 -3.26641 -3.5513 -1.9876 -0.230998 -0.451867 0.0622412 -3.52955 
153 1.55351 5.19626 31.9676 -2.85829 -3.64349 -1.89198 -0.0925672 -0.881191 -0.314347 -3.53311 
154 3.75524 3.91159 31.9692 -3.3569 -3.16033 -1.88319 -0.363394 -0.480603 0.579728 -3.53311 
155 -0.461413 4.30466 33.2534 -3.59436 -4.49115 -2.26873 0.0992881 -0.906414 -0.32209 -3.53396 
156 -0.512042 4.29963 35.8265 -3.53737 -4.33708 -2.02616 0.0994409 -0.902249 -0.342476 -3.53423 
157 -0.729547 6.45701 34.5292 -3.11161 -4.24508 -1.9012 0.128368 -1.3491 -0.460632 -3.53362 
158 1.49145 5.21336 34.5385 -2.8391 -3.57124 -1.68404 -0.0705569 -0.89244 -0.344688 -3.53308 
159 -0.805566 6.44911 37.1028 -3.06371 -4.09221 -1.6609 0.12991 -1.34206 -0.48604 -3.53388 
160 3.70814 3.95502 34.5399 -3.30684 -3.12094 -1.67595 -0.339005 -0.507229 0.555211 -3.53307 
161 1.71177 3.06249 35.832 -3.17013 -3.4396 -1.75055 -0.211428 -0.457398 0.0511877 -3.52961 
162 1.67621 3.08289 38.4086 -3.02331 -3.28232 -1.50298 -0.197474 -0.454807 0.0483219 -3.52977 
163 1.42978 5.23055 37.1128 -2.76919 -3.45067 -1.45556 -0.0560811 -0.893909 -0.359581 -3.53313 
164 3.66145 3.99834 37.1141 -3.20563 -3.03249 -1.44769 -0.320369 -0.52125 0.540098 -3.53313 
165 -0.562374 4.29465 38.4027 -3.42273 -4.13783 -1.77447 0.0983462 -0.894911 -0.353383 -3.53458 
166 -0.612314 4.28956 40.9816 -3.25794 -3.90946 -1.52606 0.0982313 -0.883861 -0.363784 -3.53492 
167 -0.88109 6.4415 39.6796 -2.95033 -3.87991 -1.41443 0.128704 -1.32975 -0.498624 -3.53425 
168 1.3687 5.248 39.6902 -2.63798 -3.2771 -1.21838 -0.0495048 -0.884299 -0.362258 -3.5333 
169 -0.95601 6.43389 42.2588 -2.77987 -3.62833 -1.17952 0.127454 -1.31214 -0.511151 -3.53461 
170 3.61541 4.04169 39.6913 -3.043 -2.88996 -1.21075 -0.307872 -0.523839 0.533024 -3.53329 
171 1.64101 3.10323 40.9876 -2.83433 -3.08837 -1.25261 -0.187444 -0.449315 0.0456685 -3.53 
172 1.60609 3.12338 43.5688 -2.61319 -2.86584 -0.997087 -0.178811 -0.44746 0.0349229 -3.53027 
173 1.3083 5.26559 42.2698 -2.45194 -3.0597 -0.982581 -0.0480093 -0.870101 -0.36712 -3.53355 
174 3.56997 4.08497 42.2709 -2.82636 -2.7018 -0.976875 -0.299323 -0.52479 0.523141 -3.53354 
175 -0.661843 4.28417 43.5623 -3.05429 -3.66241 -1.2804 0.100251 -0.869946 -0.382069 -3.53523 
176 -0.711127 4.27844 46.1446 -2.82381 -3.39473 -1.01755 0.103595 -0.855325 -0.413674 -3.53549 
177 -1.03038 6.42607 44.8394 -2.55943 -3.34447 -0.962858 0.127528 -1.29155 -0.528876 -3.53496 
178 1.24842 5.28313 44.851 -2.21834 -2.80327 -0.749781 -0.0498584 -0.859792 -0.385684 -3.53386 
179 -1.10458 6.41838 47.4203 -2.29602 -3.01706 -0.776405 0.129759 -1.27253 -0.542025 -3.53528 
180 3.52493 4.12813 44.852 -2.56109 -2.47541 -0.751879 -0.292066 -0.533009 0.501869 -3.53383 
181 1.57124 3.14329 46.1516 -2.36457 -2.61737 -0.718932 -0.171195 -0.456836 0.00769939 -3.53054 
182 1.53633 3.16338 48.7364 -2.08952 -2.36146 -0.347633 -0.183205 -0.479873 -0.0322763 -3.53015 
183 1.1886 5.30066 47.4331 -1.94358 -2.50519 -0.518669 -0.0633656 -0.866141 -0.43084 -3.53412 
184 3.48001 4.17121 47.4338 -2.24095 -2.22053 -0.543825 -0.286144 -0.559248 0.457758 -3.53404 
185 -0.760666 4.2734 48.7285 -2.60298 -3.07461 -0.669932 0.0971301 -0.846676 -0.41951 -3.53516 
186 -0.811621 4.26877 51.3169 -1.98844 -2.35103 0.311822 0.0838839 -0.841933 -0.653076 -3.53805 
187 -1.17889 6.41384 50.0002 -2.05729 -2.54163 -0.333456 0.0867677 -1.27783 -0.61976 -3.53573 
188 1.12775 5.31799 50.0156 -1.56925 -2.07902 -0.0212048 -0.11055 -0.945556 -0.597532 -3.53484 
189 -1.25707 6.40546 52.5877 -1.61238 -2.48692 0.643256 0.175795 -1.31624 -0.613048 -3.53282 
190 3.43505 4.21346 50.0156 -1.75902 -1.85301 -0.0391251 -0.309451 -0.668737 0.311632 -3.5349 
191 1.50027 3.18358 51.3264 -1.43162 -1.70132 0.657895 -0.172628 -0.54853 -0.133064 -3.53273 
192 1.46587 3.20964 53.9052 0.0266943 0.953983 -0.795907 0.566303 -0.560991 0.138959 -3.37565 
193 1.06597 5.33731 52.6041 -1.24922 -1.8986 0.441435 -0.236989 -0.801309 -0.410775 -3.52779 
194 3.38747 4.26008 52.6041 -1.41017 -1.71365 0.389774 -0.390654 -0.639411 0.587387 -3.52746 
195 -0.866323 4.2769 53.8949 -0.0508563 -0.20615 -1.18047 0.0793812 -1.26166 1.02744 -3.38132 
196 1.3298 4.1174 -56.3442 5.06942 2.90557 1.60241 -1.25474 -0.27389 0.110266 -2.79034 
197 -1.33605 6.40133 55.1665 4.18002 2.79748 1.28995 0.319916 -1.52321 0.197899 -3.26107 
198 1.00488 5.36129 55.1754 5.64213 6.63187 2.70776 0.369883 -0.636453 -0.0325908 -3.15047 
199 1.98371 6.26223 -55.1334 6.9399 9.11552 2.92918 0.134184 -0.847909 -0.525671 -3.02309 
200 3.34328 4.30996 55.1754 5.53065 7.35772 2.86913 0.118696 -0.27861 0.562651 -3.15115 
201 2.87095 2.09325 -56.362 4.04253 6.0065 1.88103 -3.16453 0.252654 0.341799 -2.79939 
202 2.84551 2.1252 -53.8874 0.165036 0.763311 -3.02646 -0.9821 -0.73281 -0.162362 -3.51266 
203 3.53831 4.21674 -55.1525 6.03166 6.27392 1.75934 0.302436 -1.2195 -0.0444726 -3.1433 
204 5.07312 2.13635 -55.1525 6.04997 7.03887 2.00314 0.446062 -0.528117 0.0805418 -3.14511 
205 1.29262 4.16451 -53.8815 0.861259 -0.348214 -3.67508 -0.408862 -0.573879 0.838998 -3.51412 
206 1.24176 4.17585 -51.3147 -1.28704 -1.91118 -0.376513 -0.21492 -0.88052 0.220609 -3.53903 
207 1.90264 6.26187 -52.5941 -0.917879 -1.45673 -0.572925 -0.184158 -1.168 0.820119 -3.52792 
208 3.4607 4.22944 -52.6036 -0.748927 -0.92585 0.0953879 -0.677508 -0.496046 0.191388 -3.53019 
209 1.82403 6.27282 -50.0101 -1.64516 -2.32882 -0.268191 -0.199619 -1.28139 0.428855 -3.53672 
210 5.01221 2.17771 -52.6036 -1.34188 -0.348603 0.0545581 -0.502562 0.0192196 0.99151 -3.52952 
211 2.80522 2.14769 -51.32 -1.10374 -0.946945 -0.113221 -0.278156 -0.333127 0.262129 -3.53414 
212 2.77226 2.17449 -48.7405 -1.97072 -1.83837 -0.547576 -0.29113 -0.225947 0.333015 -3.53087 
213 3.40036 4.25787 -50.02 -1.43225 -1.65456 -0.140876 -0.408681 -0.709385 0.284065 -3.53497 
214 4.971 2.23184 -50.02 -1.8444 -1.2745 -0.114586 -0.296561 0.0202816 0.834096 -3.53501 
215 1.18965 4.18027 -48.7356 -2.17962 -2.75944 -0.791983 -0.179982 -0.849737 0.276149 -3.5364 
216 1.13971 4.18607 -46.1541 -2.63853 -3.19367 -0.97835 -0.163014 -0.83314 0.396219 -3.53605 
217 1.74859 6.27836 -47.4307 -2.10171 -2.83598 -0.680458 -0.212776 -1.24092 0.540174 -3.53588 
218 3.34502 4.28726 -47.4411 -1.89961 -2.21031 -0.564836 -0.300551 -0.64026 0.331827 -3.53414 
219 1.67464 6.28993 -44.8496 -2.47124 -3.19311 -0.86671 -0.19899 -1.24419 0.599696 -3.53534 
220 4.93481 2.28427 -47.4403 -2.32341 -1.78996 -0.542512 -0.211508 0.104147 0.862018 -3.5342 
221 2.74195 2.20156 -46.1594 -2.36615 -2.27012 -0.740439 -0.230286 -0.162867 0.388742 -3.53074 
222 2.71354 2.23002 -43.5777 -2.67883 -2.5933 -0.951081 -0.213599 -0.150961 0.409497 -3.53037 
223 3.29148 4.31926 -44.8605 -2.2354 -2.57543 -0.719437 -0.259278 -0.625683 0.367708 -3.53392 
224 4.90187 2.33718 -44.8596 -2.65872 -2.14521 -0.723498 -0.176578 0.142024 0.893696 -3.53393 
225 1.09052 4.19441 -43.5722 -2.97774 -3.5136 -1.20536 -0.149823 -0.840883 0.422347 -3.53553 
226 1.04125 4.2035 -40.9911 -3.23813 -3.78881 -1.44601 -0.147285 -0.853894 0.429299 -3.53509 
227 1.60089 6.30324 -42.2686 -2.75411 -3.49939 -1.09285 -0.197971 -1.26188 0.615854 -3.53484 
228 3.23887 4.35277 -42.2796 -2.50919 -2.87215 -0.918657 -0.241779 -0.627739 0.385749 -3.5336 
229 1.52667 6.31729 -39.6887 -2.96537 -3.76668 -1.33618 -0.204717 -1.28107 0.619822 -3.53439 
230 4.87046 2.39101 -42.2786 -2.94228 -2.42799 -0.92865 -0.165394 0.154046 0.919072 -3.5336 
231 2.68568 2.25926 -40.9965 -2.93529 -2.85506 -1.18072 -0.210571 -0.148732 0.423701 -3.53006 
232 2.65792 2.28913 -38.4169 -3.14928 -3.07024 -1.42251 -0.215178 -0.147885 0.435369 -3.52981 
233 3.18649 4.38737 -39.6997 -2.72691 -3.11243 -1.14188 -0.236064 -0.632588 0.396384 -3.53333 
234 4.83964 2.44583 -39.6987 -3.17949 -2.64634 -1.15199 -0.165696 0.158957 0.94095 -3.53333 
235 0.991586 4.2129 -38.4117 -3.43824 -4.03328 -1.69669 -0.152213 -0.866349 0.43065 -3.53468 
236 0.941494 4.22254 -35.8346 -3.5797 -4.24368 -1.95202 -0.161676 -0.876473 0.425484 -3.53431 
237 1.45181 6.33186 -37.1111 -3.10803 -3.99039 -1.58798 -0.215414 -1.29707 0.614932 -3.53398 
238 3.13409 4.42293 -37.1217 -2.8888 -3.29628 -1.37534 -0.239247 -0.639046 0.398751 -3.53315 
239 1.37637 6.34699 -34.5366 -3.183 -4.15939 -1.83448 -0.225756 -1.30941 0.596247 -3.53367 
240 4.80912 2.50165 -37.1207 -3.36731 -2.80311 -1.38427 -0.175721 0.158621 0.954983 -3.53314 
241 2.63016 2.31958 -35.8396 -3.31974 -3.23926 -1.66865 -0.226824 -0.149842 0.441276 -3.52963 
242 2.60237 2.35053 -33.2652 -3.44208 -3.36 -1.90877 -0.245279 -0.15794 0.437569 -3.52955 
243 3.08158 4.45935 -34.5466 -2.99265 -3.42238 -1.60534 -0.250627 -0.650357 0.387624 -3.53306 
244 4.7788 2.55835 -34.5455 -3.50041 -2.90035 -1.61346 -0.195594 0.148083 0.956139 -3.53306 
245 0.891033 4.23243 -33.2606 -3.66191 -4.41104 -2.20053 -0.172269 -0.884505 0.409741 -3.534 
246 0.840274 4.24247 -30.69 -3.6923 -4.5326 -2.42868 -0.18096 -0.891253 0.382376 -3.5338 
247 1.30046 6.36251 -31.9656 -3.20029 -4.27166 -2.05941 -0.23266 -1.31913 0.561458 -3.53349 
248 3.02887 4.49634 -31.9748 -3.04322 -3.49795 -1.81921 -0.268507 -0.667455 0.361852 -3.53307 
249 1.22415 6.37808 -29.3982 -3.17775 -4.33691 -2.25172 -0.235062 -1.32679 0.514134 -3.53342 
250 4.74854 2.61564 -31.9735 -3.58122 -2.94746 -1.82733 -0.223746 0.124945 0.944302 -3.53306 
251 2.57446 2.38179 -30.694 -3.5177 -3.4367 -2.13158 -0.268758 -0.172795 0.424034 -3.52954 
252 2.5463 2.41315 -28.1261 -3.55513 -3.47985 -2.32868 -0.294328 -0.191984 0.404021 -3.52957 
253 2.97578 4.53347 -29.4063 -3.05293 -3.53704 -2.00866 -0.289891 -0.687886 0.325941 -3.53312 
254 4.71804 2.67319 -29.4049 -3.62017 -2.95972 -2.01726 -0.256796 0.0920372 0.923929 -3.5331 
255 0.789257 4.25245 -28.1228 -3.68553 -4.61426 -2.62683 -0.185947 -0.897119 0.346571 -3.53368 
256 0.737994 4.26215 -25.5586 -3.65678 -4.66574 -2.79149 -0.186674 -0.902095 0.306974 -3.53362 
257 1.14745 6.39332 -26.8339 -3.13292 -4.36887 -2.40814 -0.233119 -1.3324 0.460414 -3.53342 
258 2.92216 4.57037 -26.8408 -3.03595 -3.55336 -2.17033 -0.311528 -0.708575 0.285908 -3.53318 
259 1.07039 6.4079 -24.2724 -3.07905 -4.37993 -2.53101 -0.227322 -1.33615 0.405744 -3.53347 
260 4.68699 2.73071 -26.8393 -3.62966 -2.95177 -2.17925 -0.291102 0.0543321 0.90002 -3.53316 
261 2.51774 2.44438 -25.5612 -3.56539 -3.50103 -2.49614 -0.31924 -0.212461 0.381519 -3.52962 
262 2.4887 2.47534 -22.999 -3.55846 -3.50965 -2.63392 -0.341656 -0.23201 0.359408 -3.52967 
263 2.86789 4.60674 -24.2781 -3.00416 -3.55715 -2.30438 -0.330882 -0.727383 0.246309 -3.53323 
264 4.65518 2.78801 -24.2766 -3.62046 -2.93454 -2.31305 -0.323993 0.0161941 0.876156 -3.53321 
265 0.686495 4.27138 -22.997 -3.61789 -4.69653 -2.92389 -0.183377 -0.906141 0.267429 -3.5336 
266 0.634778 4.28003 -20.4376 -3.57673 -4.71419 -3.02785 -0.176664 -0.909366 0.230276 -3.5336 
267 0.992999 6.4216 -21.7131 -3.02476 -4.37929 -2.62529 -0.218239 -1.33855 0.353653 -3.53353 
268 2.81294 4.64243 -21.7178 -2.96603 -3.55512 -2.41296 -0.346501 -0.743324 0.20967 -3.53327 
269 0.915299 6.43429 -19.1556 -2.97492 -4.37313 -2.69651 -0.206487 -1.34021 0.305853 -3.5336 
270 4.62248 2.84494 -21.7161 -3.60064 -2.9151 -2.42079 -0.353985 -0.0195997 0.854345 -3.53325 
271 2.45912 2.50595 -20.4391 -3.54185 -3.51219 -2.74444 -0.360687 -0.249476 0.339228 -3.52972 
272 2.42902 2.53615 -17.8809 -3.52075 -3.51263 -2.83132 -0.376136 -0.264526 0.321537 -3.52975 
273 2.75731 4.67733 -19.1593 -2.92699 -3.55134 -2.49921 -0.35789 -0.756273 0.176968 -3.5333 
274 4.58884 2.90144 -19.1576 -3.57574 -2.89752 -2.50582 -0.380508 -0.051762 0.835438 -3.53329 
275 0.582863 4.28803 -17.88 -3.53794 -4.72404 -3.10802 -0.167252 -0.912022 0.196557 -3.53361 
276 0.530776 4.29535 -15.3237 -3.50385 -4.72958 -3.16892 -0.155847 -0.91443 0.166451 -3.53362 
277 0.837325 6.44592 -16.5995 -2.93178 -4.36521 -2.74969 -0.192719 -1.34172 0.262796 -3.53366 
278 2.70102 4.7114 -16.6024 -2.89016 -3.54802 -2.56656 -0.365188 -0.7666 0.148231 -3.53332 
279 0.759098 6.45646 -14.0445 -2.89581 -4.35765 -2.78897 -0.177575 -1.34352 0.224212 -3.5337 
280 4.55424 2.95747 -16.6007 -3.54928 -2.88382 -2.57182 -0.403555 -0.0800508 0.819562 -3.53331 
281 2.3984 2.56593 -15.3243 -3.4984 -3.5132 -2.89842 -0.388227 -0.277329 0.306316 -3.52978 
282 2.36729 2.59528 -12.7688 -3.47667 -3.51495 -2.94938 -0.397392 -0.2883 0.293252 -3.5298 
283 2.64411 4.74465 -14.0466 -2.85703 -3.54622 -2.61832 -0.368883 -0.774889 0.123009 -3.53334 
284 4.51873 3.01301 -14.0449 -3.5233 -2.87468 -2.62224 -0.423427 -0.104826 0.806445 -3.53333 
285 0.478532 4.30197 -12.7685 -3.47527 -4.73296 -3.21448 -0.143075 -0.916896 0.139667 -3.53362 
286 0.426143 4.30789 -10.2141 -3.45195 -4.73536 -3.24791 -0.129468 -0.919618 0.115702 -3.53363 
287 0.680632 6.46591 -11.4902 -2.86634 -4.35147 -2.81758 -0.161621 -1.34587 0.189486 -3.53374 
288 2.58661 4.77707 -11.4918 -2.82796 -3.5463 -2.65744 -0.369609 -0.781726 0.100657 -3.53335 
289 0.601931 6.47428 -8.93654 -2.84203 -4.34703 -2.83795 -0.145298 -1.34874 0.157887 -3.53377 
290 4.48232 3.06805 -11.4901 -3.4988 -2.87005 -2.66007 -0.440563 -0.126715 0.795622 -3.53334 
291 2.33571 2.62421 -10.2141 -3.45641 -3.51821 -2.98733 -0.404152 -0.297912 0.281925 -3.52981 
292 2.30367 2.65271 -7.66008 -3.43782 -3.52292 -3.01481 -0.409027 -0.306565 0.271906 -3.52982 
293 2.52855 4.80867 -8.93768 -2.80262 -3.54818 -2.68637 -0.368003 -0.787564 0.0805107 -3.53335 
294 4.44506 3.1226 -8.93598 -3.47611 -2.86947 -2.68776 -0.455436 -0.146382 0.786569 -3.53335 
295 0.37361 4.31312 -7.6603 -3.43305 -4.73738 -3.27169 -0.115457 -0.922603 0.0939832 -3.53364 
296 0.320935 4.31767 -5.10689 -3.41741 -4.73921 -3.28765 -0.101353 -0.92561 0.0739264 -3.53364 
297 0.523 6.4816 -6.38332 -2.82134 -4.34428 -2.85181 -0.128877 -1.35182 0.128672 -3.53379 
298 2.46995 4.83947 -6.38405 -2.78027 -3.55166 -2.70703 -0.364607 -0.792653 0.061974 -3.53335 
299 0.443858 6.48786 -3.8304 -2.80299 -4.34304 -2.86029 -0.112432 -1.35454 0.101136 -3.5338 
300 4.40696 3.17666 -6.38236 -3.4551 -2.87235 -2.70717 -0.468461 -0.164406 0.778771 -3.53335 
301 2.2712 2.68079 -5.1065 -3.42067 -3.52886 -3.03374 -0.412472 -0.314517 0.262812 -3.52983 
302 2.2383 2.70845 -2.5532 -3.40458 -3.53584 -3.04546 -0.414796 -0.321872 0.254322 -3.52983 
303 2.41084 4.86948 -3.83076 -2.76013 -3.55652 -2.72078 -0.359775 -0.797029 0.0445586 -3.53336 
304 4.36805 3.23021 -3.82908 -3.43547 -2.87819 -2.71964 -0.479924 -0.181216 0.771771 -3.53336 
305 0.268127 4.32156 -2.55376 -3.40402 -4.74088 -3.29694 -0.0873162 -0.928176 0.0549563 -3.53364 
306 0.364543 6.4931 -1.27767 -2.78646 -4.34308 -2.864 -0.0958505 -1.3563 0.0746215 -3.53381 
307 2.35124 4.89869 -1.27769 -2.74164 -3.5627 -2.72842 -0.353617 -0.800577 0.0278806 -3.53336 
308 4.32835 3.28323 -1.27599 -3.41695 -2.88666 -2.726 -0.489916 -0.197105 0.765193 -3.53336 
309 2.43623 7.09098 -0.00152377 -2.21616 -3.35988 -2.40131 -0.317439 -1.20609 -0.187981 -3.5329 
310 0.434466 8.66815 -0.00180181 -2.2472 -4.01585 -2.49626 -0.0996133 -1.74249 0.0832709 -3.53357 