ITEM: TIMESTEP
0
ITEM: NUMBER OF ATOMS
37664
ITEM: BOX BOUNDS ff ff ff
-100 100
-100 100
-156.15 156.15
ITEM: ATOMS id x y z v_peratom_sxx v_peratom_syy v_peratom_szz v_peratom_sxy v_peratom_sxz v_peratom_syz c_atomPE 
1 -0.00340391 -0.00162937 -0.000373096 -5.18109 -5.16886 -9.54277 0.000322173 -0.0083205 -0.0467837 -3.51524 
2 -0.00362804 -0.00137094 2.55279 -5.17891 -5.16748 -9.53889 -0.000737402 -0.00680605 -0.0460771 -3.51526 
3 -0.00383276 -0.00109611 5.10607 -5.17237 -5.16208 -9.52491 -0.00187682 -0.00467196 -0.0451268 -3.51532 
4 -0.00401528 -0.000807585 7.65961 -5.16096 -5.15221 -9.49983 -0.0030778 -0.00180737 -0.0439257 -3.51544 
5 -0.00416957 -0.000510133 10.2136 -5.1439 -5.13713 -9.46202 -0.00428843 0.00176353 -0.0424235 -3.51561 
6 -0.00428724 -0.000209655 12.7681 -5.12012 -5.11568 -9.40917 -0.00543339 0.00585801 -0.0405525 -3.51586 
7 -0.00435947 8.78551e-05 15.3235 -5.08813 -5.08625 -9.33819 -0.00643479 0.010173 -0.0382688 -3.51619 
8 -0.00437902 0.000376888 17.88 -5.04584 -5.04654 -9.24513 -0.0072318 0.0143645 -0.0355878 -3.51661 
9 -0.00434162 0.000652299 20.4379 -4.99024 -4.99342 -9.12505 -0.00779106 0.0181285 -0.0325992 -3.51716 
10 -0.00424628 0.000908725 22.9975 -4.91725 -4.92265 -8.97222 -0.00810743 0.0212574 -0.0294609 -3.51785 
11 -0.00409465 0.0011399 25.5594 -4.8215 -4.82877 -8.78076 -0.00819913 0.0236613 -0.0263779 -3.5187 
12 -0.00388996 0.00133821 28.1238 -4.69663 -4.70538 -8.54635 -0.00810101 0.0253615 -0.0235731 -3.51973 
13 -0.0036358 0.00149466 30.6913 -4.5368 -4.54662 -8.26934 -0.00785681 0.0264627 -0.0212501 -3.52092 
14 -0.0033352 0.00159924 33.262 -4.34042 -4.35091 -7.95845 -0.0075098 0.0271142 -0.0195585 -3.52221 
15 -0.00298991 0.00164124 35.8359 -4.11536 -4.12617 -7.63114 -0.0070935 0.0274745 -0.0185779 -3.52348 
16 -0.00259995 0.00160927 38.4127 -3.87768 -3.88845 -7.30577 -0.00662534 0.0276806 -0.0183239 -3.52458 
17 -0.00216303 0.00149045 40.9918 -3.63895 -3.64937 -6.98875 -0.00610193 0.0278339 -0.0187816 -3.52547 
18 -0.00167159 0.0012676 43.5732 -3.40016 -3.40988 -6.66731 -0.00548374 0.0280717 -0.0199782 -3.52619 
19 -0.00110803 0.000914596 46.157 -3.13621 -3.1446 -6.30459 -0.00463161 0.0285646 -0.0219907 -3.52694 
20 -0.000452887 0.000391511 48.7436 -2.75372 -2.75841 -5.86501 -0.00261654 0.0286041 -0.0247335 -3.52781 
21 5.95933e-07 -4.11185e-08 51.3317 -1.92322 -1.92286 -4.92084 0.000199617 -0.0014742 0.00131173 -3.53204 
22 4.01304e-07 -1.42881e-06 53.9138 -0.851914 -0.851926 -8.91781 -1.21404e-06 -2.70387e-05 -7.28973e-05 -3.48169 
23 8.71386e-07 -1.98378e-06 56.3885 1.68559 1.6856 1.87687 -1.57539e-05 2.42746e-05 -4.71534e-07 -2.55581 
24 -1.23087e-07 -1.12453e-06 -53.8876 -2.60695 -2.60698 -6.54962 -1.44826e-05 7.13775e-06 -3.40647e-05 -3.40183 
25 1.02659e-07 -1.55837e-06 -51.3239 -2.07929 -2.07939 -5.58103 -0.000522245 0.000535998 0.00244641 -3.52873 
26 -0.000119025 -0.000690445 -48.7463 -2.69792 -2.69591 -6.15348 0.00688776 -0.00767133 -0.0431686 -3.52637 
27 -0.000246127 -0.00163811 -46.1647 -3.02547 -3.02178 -6.35497 0.0122629 -0.0053988 -0.0396159 -3.52675 
28 -0.000313368 -0.00233432 -43.5824 -3.30697 -3.30155 -6.61562 0.0137751 -0.00186607 -0.0364834 -3.52632 
29 -0.000325216 -0.00283895 -41.001 -3.56245 -3.55501 -6.90356 0.0141954 0.00128648 -0.0341033 -3.52571 
30 -0.000306385 -0.00319145 -38.4213 -3.81263 -3.80311 -7.21149 0.0139805 0.00369887 -0.032369 -3.52488 
31 -0.000281956 -0.00341805 -35.8439 -4.05882 -4.04734 -7.53556 0.0133282 0.00509237 -0.0312515 -3.52383 
32 -0.000275865 -0.00353982 -33.2691 -4.29177 -4.27859 -7.86485 0.0123868 0.00526093 -0.030817 -3.5226 
33 -0.000309203 -0.00357642 -30.6974 -4.49852 -4.48403 -8.18195 0.0112973 0.00416567 -0.0311374 -3.52131 
34 -0.000397574 -0.00354667 -28.1289 -4.67061 -4.65523 -8.46989 0.0101836 0.00199094 -0.0322221 -3.52009 
35 -0.000548704 -0.00346756 -25.5635 -4.80704 -4.79119 -8.71817 0.00913208 -0.000875942 -0.0339784 -3.51901 
36 -0.000761435 -0.0033532 -23.0008 -4.91176 -4.8958 -8.92385 0.00818001 -0.00393793 -0.0362088 -3.5181 
37 -0.00102656 -0.00321404 -20.4404 -4.99057 -4.97475 -9.08926 0.00731874 -0.00672117 -0.0386539 -3.51735 
38 -0.00132942 -0.00305702 -17.882 -5.04916 -5.03365 -9.21939 0.00651081 -0.00888694 -0.0410525 -3.51676 
39 -0.00165329 -0.00288639 -15.3251 -5.09236 -5.07725 -9.31992 0.00571286 -0.0102872 -0.0431913 -3.51629 
40 -0.00198246 -0.00270452 -12.7694 -5.12394 -5.10927 -9.39621 0.00489407 -0.0109549 -0.0449285 -3.51594 
41 -0.00230434 -0.00251256 -10.2146 -5.1467 -5.13248 -9.45283 0.0040427 -0.0110424 -0.046194 -3.51567 
42 -0.00261042 -0.00231053 -7.66054 -5.16266 -5.14889 -9.49343 0.00316075 -0.0107349 -0.0469743 -3.51548 
43 -0.00289618 -0.00209735 -5.10689 -5.17321 -5.15989 -9.5208 0.00225205 -0.010171 -0.0472956 -3.51535 
44 -0.00316039 -0.00187103 -2.55356 -5.17921 -5.16638 -9.53687 0.00131154 -0.00939024 -0.0472103 -3.51527 
45 0.0927325 2.15861 1.27494 -4.05277 -5.13335 -3.83751 -0.0521747 -0.443176 -0.00490895 -3.52909 
46 0.0662717 2.15985 3.8281 -4.04918 -5.13332 -3.82979 -0.0405533 -0.442614 -0.0142727 -3.5291 
47 0.0398347 2.16076 6.38144 -4.04718 -5.13132 -3.81375 -0.0287977 -0.441521 -0.023859 -3.52912 
48 0.0134429 2.16134 8.93513 -4.04711 -5.12704 -3.78846 -0.0168872 -0.439952 -0.0338969 -3.52914 
49 -0.0128812 2.16158 11.4893 -4.04936 -5.11994 -3.75245 -0.00484832 -0.438061 -0.0446308 -3.52918 
50 -0.0391165 2.16147 14.0442 -4.05425 -5.10916 -3.70373 0.00719555 -0.43605 -0.0563599 -3.52922 
51 -0.0652463 2.16101 16.6001 -4.06179 -5.09334 -3.63957 0.0190019 -0.434099 -0.0694548 -3.52927 
52 -0.0912587 2.16019 19.1572 -4.07143 -5.0705 -3.55652 0.0302109 -0.432321 -0.0843305 -3.52933 
53 -0.117148 2.15903 21.7158 -4.08171 -5.0377 -3.45033 0.0403594 -0.430744 -0.101349 -3.52941 
54 -0.142911 2.15753 24.2763 -4.08966 -4.9907 -3.31627 0.048908 -0.429318 -0.120608 -3.52952 
55 -0.168551 2.15572 26.8393 -4.08988 -4.92354 -3.1499 0.0553027 -0.427919 -0.141562 -3.52966 
56 -0.194071 2.15365 29.405 -4.07339 -4.82855 -2.94877 0.0591257 -0.426358 -0.162489 -3.52985 
57 -0.219467 2.15142 31.9738 -4.02731 -4.69764 -2.71499 0.0603783 -0.424369 -0.180211 -3.53012 
58 -0.244723 2.1491 34.546 -3.93818 -4.52644 -2.45753 0.0598121 -0.421599 -0.19124 -3.53047 
59 -0.2698 2.14673 37.1213 -3.80068 -4.32033 -2.19059 0.0589145 -0.417605 -0.195341 -3.53088 
60 -0.29465 2.14424 39.6994 -3.62325 -4.09393 -1.92556 0.0591857 -0.412043 -0.197622 -3.53128 
61 -0.319242 2.14151 42.2797 -3.41784 -3.85789 -1.66264 0.0612947 -0.4051 -0.204279 -3.53165 
62 -0.343611 2.13847 44.862 -3.19111 -3.60894 -1.39014 0.0644863 -0.397355 -0.222061 -3.53193 
63 -0.367913 2.1353 47.4464 -2.91359 -3.29698 -1.10415 0.0655457 -0.390966 -0.243148 -3.53223 
64 -0.392512 2.13371 50.032 -2.4305 -2.80165 -0.491104 0.0607465 -0.411396 -0.208399 -3.53325 
65 -0.418483 2.1304 52.6263 -1.76577 -2.00551 -0.561395 0.0454919 -0.308966 -0.729927 -3.52457 
66 -0.44812 2.14653 55.1778 6.97659 7.73843 2.4309 0.0330158 -0.597321 1.77022 -3.02528 
67 0.649859 2.05055 -55.162 1.38944 0.842385 -0.67838 -0.188253 -0.099197 1.20761 -3.26036 
68 0.633027 2.08274 -52.6122 -1.11201 -2.21872 -0.457741 -0.374496 -0.489287 -0.161396 -3.53567 
69 0.607028 2.08678 -50.0319 -2.00603 -2.5578 -0.878961 -0.166958 -0.42711 0.0745727 -3.53397 
70 0.581523 2.08791 -47.4534 -2.64078 -3.07397 -1.21601 -0.123023 -0.397817 0.144858 -3.5329 
71 0.556891 2.09117 -44.8715 -3.06298 -3.44353 -1.37439 -0.100232 -0.392669 0.190163 -3.53225 
72 0.532417 2.0953 -42.2896 -3.36276 -3.72902 -1.60288 -0.0901679 -0.3967 0.202977 -3.53182 
73 0.507811 2.09971 -39.7091 -3.60723 -3.9849 -1.85305 -0.0879765 -0.402571 0.209758 -3.5314 
74 0.482973 2.10427 -37.1305 -3.81021 -4.22265 -2.11602 -0.0917163 -0.408291 0.213793 -3.53096 
75 0.457899 2.10896 -34.5544 -3.96851 -4.43718 -2.38466 -0.0997065 -0.413451 0.212786 -3.53054 
76 0.432614 2.11378 -31.9814 -4.07778 -4.61868 -2.64698 -0.109641 -0.418264 0.204068 -3.53017 
77 0.407147 2.11867 -29.4116 -4.14129 -4.76199 -2.88939 -0.11901 -0.422895 0.187673 -3.52987 
78 0.381511 2.12351 -26.8451 -4.16937 -4.86924 -3.10195 -0.125949 -0.427245 0.166239 -3.52964 
79 0.355715 2.12821 -24.2814 -4.17391 -4.94686 -3.28048 -0.129594 -0.431107 0.142889 -3.52948 
80 0.32977 2.13268 -21.7203 -4.16477 -5.00209 -3.4256 -0.129874 -0.434328 0.119953 -3.52936 
81 0.303694 2.13686 -19.1613 -4.14895 -5.04122 -3.54068 -0.127158 -0.436861 0.0987488 -3.52927 
82 0.277509 2.14074 -16.6039 -4.13092 -5.06909 -3.63018 -0.121969 -0.438756 0.0798129 -3.52921 
83 0.251238 2.14429 -14.0478 -4.11332 -5.08916 -3.69855 -0.114832 -0.440133 0.0631934 -3.52917 
84 0.224903 2.1475 -11.4928 -4.09754 -5.10378 -3.74977 -0.106209 -0.441141 0.0486743 -3.52913 
85 0.19852 2.15038 -8.93849 -4.08417 -5.11452 -3.7871 -0.0964879 -0.441912 0.0359192 -3.52911 
86 0.172102 2.15293 -6.38473 -4.07326 -5.12238 -3.81304 -0.0859917 -0.442533 0.0245514 -3.5291 
87 0.145659 2.15515 -3.83134 -4.0646 -5.12795 -3.82942 -0.0749847 -0.443008 0.0141928 -3.52909 
88 0.119199 2.15704 -1.27816 -4.05787 -5.13156 -3.83739 -0.0636692 -0.443265 0.00448273 -3.52908 
89 0.215565 4.32531 -0.00238442 -3.38886 -4.73774 -3.29922 -0.0748061 -0.921478 0.0351824 -3.53368 
90 0.285584 6.49785 1.27342 -2.7721 -4.34044 -2.86145 -0.0793861 -1.34787 0.0492943 -3.53385 
91 2.20538 2.73613 -0.0013786 -3.38828 -3.53959 -3.05238 -0.418123 -0.324417 0.245603 -3.52984 
92 2.17176 2.76285 2.55173 -3.37496 -3.55022 -3.05007 -0.417123 -0.329851 0.238086 -3.52984 
93 2.29163 4.92752 1.27393 -2.72323 -3.56774 -2.73048 -0.346757 -0.79659 0.0135981 -3.53337 
94 4.28834 3.33607 1.27587 -3.39982 -2.89535 -2.72789 -0.499232 -0.208428 0.758362 -3.53337 
95 0.162757 4.32784 2.55055 -3.38294 -4.73979 -3.29555 -0.0597975 -0.921385 0.0169007 -3.53368 
96 0.109968 4.3297 5.10361 -3.38053 -4.74199 -3.28568 -0.0444504 -0.920741 -0.00163513 -3.53369 
97 0.20641 6.50098 3.82613 -2.76748 -4.34429 -2.85579 -0.0612426 -1.34778 0.0231571 -3.53385 
98 2.23139 4.95501 3.82697 -2.71222 -3.57827 -2.72536 -0.336244 -0.798325 -0.00221307 -3.53337 
99 0.127287 6.50305 6.37902 -2.76789 -4.34984 -2.8455 -0.0426714 -1.34751 -0.00356433 -3.53385 
100 4.24728 3.38789 3.82893 -3.38566 -2.91049 -2.72192 -0.504597 -0.222741 0.752281 -3.53337 
101 2.1378 2.78911 5.10496 -3.3632 -3.56233 -3.04094 -0.414473 -0.33511 0.230525 -3.52984 
102 2.10354 2.81487 7.65846 -3.3533 -3.57585 -3.02437 -0.409957 -0.340389 0.222685 -3.52983 
103 2.17082 4.98165 6.3802 -2.70469 -3.59044 -2.71396 -0.323864 -0.799947 -0.0184485 -3.53337 
104 4.20555 3.4391 6.38218 -3.37366 -2.92845 -2.7097 -0.507782 -0.237155 0.745961 -3.53336 
105 0.0572331 4.33086 7.65692 -3.38231 -4.74428 -3.26911 -0.0287264 -0.919676 -0.0208113 -3.53369 
106 0.0045899 4.33132 10.2106 -3.38909 -4.7465 -3.24499 -0.0126673 -0.918411 -0.0410461 -3.53369 
107 0.0482636 6.50405 8.93221 -2.77423 -4.35707 -2.83007 -0.023762 -1.34732 -0.0314046 -3.53384 
108 2.10998 5.0074 8.93376 -2.70131 -3.60415 -2.6956 -0.309519 -0.801747 -0.0355696 -3.53337 
109 -0.0306205 6.50398 11.4858 -2.78727 -4.36594 -2.8087 -0.00469436 -1.34746 -0.06097 -3.53381 
110 4.16317 3.4897 8.93576 -3.3642 -2.94926 -2.69051 -0.508534 -0.252044 0.739124 -3.53336 
111 2.06898 2.84013 10.2124 -3.34569 -3.59066 -2.99927 -0.403337 -0.34596 0.214282 -3.52982 
112 2.03416 2.86487 12.7669 -3.34079 -3.60647 -2.96412 -0.394394 -0.35218 0.204952 -3.52981 
113 2.04888 5.03226 11.4878 -2.70273 -3.61921 -2.66924 -0.293144 -0.804094 -0.0541351 -3.53336 
114 4.12017 3.53963 11.4898 -3.3577 -2.97293 -2.66326 -0.506567 -0.267859 0.731427 -3.53336 
115 -0.0479298 4.33107 12.7649 -3.40161 -4.74831 -3.21198 0.00357981 -0.917173 -0.0628301 -3.53369 
116 -0.1003 4.3301 15.32 -3.42039 -4.74907 -3.16819 0.0197681 -0.916126 -0.0867402 -3.53369 
117 -0.109332 6.50282 14.0401 -2.80765 -4.37626 -2.78007 0.0142869 -1.34811 -0.0929597 -3.53378 
118 1.98756 5.05619 14.0425 -2.70957 -3.63531 -2.63341 -0.274691 -0.8074 -0.0748089 -3.53335 
119 -0.187842 6.50056 16.5951 -2.8358 -4.38759 -2.74232 0.0329044 -1.34934 -0.128154 -3.53374 
120 4.07654 3.58888 14.0445 -3.35452 -2.99942 -2.6264 -0.501561 -0.285132 0.722426 -3.53335 
121 1.99908 2.88905 15.3222 -3.33887 -3.62278 -2.91687 -0.382923 -0.359471 0.194237 -3.5298 
122 1.96375 2.91267 17.8786 -3.33988 -3.63873 -2.85489 -0.368735 -0.368286 0.181603 -3.52977 
123 1.92602 5.07916 16.5981 -2.72225 -3.65192 -2.58614 -0.254116 -0.812093 -0.0983412 -3.53334 
124 4.03231 3.6374 16.6001 -3.35486 -3.02854 -2.57796 -0.49316 -0.304474 0.71156 -3.53334 
125 -0.1525 4.32842 17.8761 -3.44562 -4.74775 -3.11102 0.0355721 -0.915324 -0.113411 -3.53368 
126 -0.204515 4.32603 20.4334 -3.47695 -4.7426 -3.03706 0.0506019 -0.914703 -0.143444 -3.53368 
127 -0.266129 6.4972 19.1512 -2.87186 -4.39907 -2.69278 0.0508751 -1.35104 -0.167355 -3.53368 
128 1.86428 5.10115 19.1548 -2.74089 -3.66814 -2.52485 -0.231371 -0.818591 -0.12551 -3.53332 
129 -0.344167 6.49274 21.7085 -2.91552 -4.40909 -2.62789 0.0679233 -1.35294 -0.211238 -3.53362 
130 3.98747 3.68516 19.1568 -3.35863 -3.05982 -2.51547 -0.480994 -0.32654 0.698155 -3.53333 
131 1.92818 2.9357 20.4363 -3.34326 -3.65293 -2.77498 -0.351665 -0.379065 0.166484 -3.52974 
132 1.89238 2.95812 22.9957 -3.3475 -3.66306 -2.67339 -0.331634 -0.392135 0.148404 -3.52971 
133 1.80235 5.12212 21.7129 -2.76513 -3.68246 -2.4464 -0.206451 -0.82728 -0.156994 -3.5333 
134 3.94202 3.73211 21.7149 -3.36523 -3.09223 -2.43599 -0.464744 -0.351957 0.681472 -3.5333 
135 -0.256335 4.32293 22.9924 -3.51312 -4.73082 -2.94208 0.0644011 -0.914098 -0.177208 -3.53367 
136 -0.307952 4.31917 25.5534 -3.55118 -4.70796 -2.82118 0.0764298 -0.913282 -0.214461 -3.53368 
137 -0.421934 6.48721 24.2675 -2.96551 -4.41476 -2.54303 0.0837733 -1.35461 -0.260051 -3.53355 
138 1.74026 5.14208 24.2728 -2.79369 -3.6924 -2.34718 -0.179499 -0.83844 -0.193114 -3.53326 
139 -0.499408 6.48069 26.8285 -3.01878 -4.41118 -2.43255 0.0981012 -1.3555 -0.313083 -3.53349 
140 3.896 3.77823 24.2747 -3.37313 -3.12377 -2.3362 -0.444296 -0.381145 0.66086 -3.53327 
141 1.85636 2.97994 25.5572 -3.34956 -3.66538 -2.54618 -0.308796 -0.407506 0.127235 -3.52966 
142 1.82017 3.0012 28.1212 -3.34381 -3.6539 -2.3899 -0.283784 -0.424475 0.103687 -3.5296 
143 1.67802 5.16104 26.8349 -2.82361 -3.69397 -2.22345 -0.151013 -0.85207 -0.233359 -3.53322 
144 3.84943 3.82352 26.8367 -3.37923 -3.15079 -2.21263 -0.420004 -0.413928 0.636083 -3.53322 
145 -0.359365 4.31483 28.1169 -3.58527 -4.66727 -2.6695 0.0860646 -0.912023 -0.253751 -3.53372 
146 -0.410573 4.31005 30.6833 -3.60492 -4.59927 -2.48381 0.0926925 -0.910079 -0.291739 -3.5338 
147 -0.576572 6.47334 29.3921 -3.06914 -4.39046 -2.29041 0.110432 -1.35508 -0.367877 -3.53346 
148 1.61569 5.17912 29.3995 -2.84898 -3.68101 -2.07205 -0.122164 -0.867471 -0.275617 -3.53316 
149 -0.653413 6.46542 31.9587 -3.10534 -4.34081 -2.11196 0.120031 -1.35297 -0.419492 -3.53349 
150 3.80243 3.86803 29.4013 -3.37774 -3.16701 -2.06215 -0.393044 -0.448845 0.607935 -3.53316 
151 1.78388 3.02198 30.6881 -3.32087 -3.61986 -2.20299 -0.258034 -0.441056 0.0800286 -3.52956 
152 1.74764 3.04247 33.2583 -3.26745 -3.55206 -1.98754 -0.23393 -0.453696 0.0604697 -3.52954 
153 1.55336 5.19654 31.9672 -2.85931 -3.64449 -1.8915 -0.0950898 -0.882532 -0.315308 -3.5331 
154 3.75518 3.91188 31.9688 -3.35874 -3.16239 -1.88284 -0.365705 -0.482301 0.579095 -3.5331 
155 -0.461565 4.30504 33.253 -3.5943 -4.49266 -2.26534 0.0960145 -0.907037 -0.323245 -3.53396 
156 -0.512298 4.30001 35.8261 -3.5356 -4.33854 -2.02277 0.0965389 -0.902032 -0.34374 -3.53423 
157 -0.729909 6.45733 34.5287 -3.10967 -4.24679 -1.89754 0.126008 -1.34869 -0.460882 -3.53362 
158 1.4912 5.21365 34.5382 -2.83841 -3.57233 -1.68351 -0.0727723 -0.893062 -0.345462 -3.53307 
159 -0.805988 6.44942 37.1024 -3.06077 -4.09377 -1.65728 0.128005 -1.34095 -0.4864 -3.53389 
160 3.70799 3.95532 34.5397 -3.30709 -3.12297 -1.67584 -0.341183 -0.508472 0.554529 -3.53307 
161 1.71164 3.06286 35.8318 -3.16957 -3.44048 -1.75074 -0.214163 -0.458562 0.0495145 -3.5296 
162 1.67602 3.08325 38.4084 -3.02167 -3.2833 -1.50333 -0.199884 -0.455314 0.0467488 -3.52976 
163 1.42946 5.23083 37.1126 -2.7673 -3.45179 -1.45498 -0.0579165 -0.893832 -0.360176 -3.53313 
164 3.66125 3.99863 37.1139 -3.2047 -3.03444 -1.44776 -0.322295 -0.521986 0.539384 -3.53312 
165 -0.562685 4.29503 38.4024 -3.41989 -4.13926 -1.77124 0.0958801 -0.89391 -0.354769 -3.53458 
166 -0.612633 4.28991 40.9813 -3.25468 -3.91083 -1.52307 0.0962199 -0.882163 -0.365364 -3.53492 
167 -0.881521 6.44179 39.6793 -2.94695 -3.88134 -1.411 0.12723 -1.32802 -0.499174 -3.53426 
168 1.36837 5.24827 39.69 -2.63542 -3.27817 -1.21771 -0.0509307 -0.883615 -0.362756 -3.5333 
169 -0.956403 6.43415 42.2586 -2.7766 -3.62954 -1.17628 0.126356 -1.30987 -0.512031 -3.53461 
170 3.61518 4.04196 39.6912 -3.04134 -2.89176 -1.21093 -0.309468 -0.524108 0.532243 -3.53329 
171 1.64081 3.10356 40.9875 -2.83214 -3.08938 -1.253 -0.189448 -0.449258 0.0441226 -3.53 
172 1.6059 3.12365 43.5687 -2.61096 -2.86677 -0.997363 -0.180354 -0.446994 0.0332492 -3.53027 
173 1.30799 5.26581 42.2697 -2.44922 -3.06061 -0.981781 -0.0490235 -0.868955 -0.367676 -3.53355 
174 3.56976 4.0852 42.2708 -2.82444 -2.70335 -0.977094 -0.300538 -0.524697 0.52221 -3.53354 
175 -0.662127 4.28447 43.5622 -3.0512 -3.66355 -1.27758 0.098688 -0.867653 -0.383992 -3.53523 
176 -0.711334 4.27865 46.1445 -2.82142 -3.39522 -1.01463 0.102478 -0.852491 -0.416216 -3.53549 
177 -1.03069 6.42627 44.8393 -2.55671 -3.34522 -0.959597 0.126724 -1.28885 -0.53031 -3.53496 
178 1.24817 5.2833 44.851 -2.2159 -2.80377 -0.748833 -0.0504771 -0.858359 -0.386514 -3.53386 
179 -1.10477 6.4185 47.4203 -2.29409 -3.01662 -0.772518 0.129174 -1.26941 -0.544379 -3.53529 
180 3.52476 4.1283 44.852 -2.5593 -2.47653 -0.752117 -0.292867 -0.532692 0.500655 -3.53383 
181 1.5711 3.14347 46.1516 -2.36275 -2.61791 -0.718976 -0.172224 -0.456157 0.00562459 -3.53054 
182 1.53627 3.16344 48.7364 -2.08836 -2.36127 -0.347615 -0.1834 -0.479136 -0.0351195 -3.53015 
183 1.18845 5.30075 47.4331 -1.9417 -2.50484 -0.517778 -0.0636442 -0.864547 -0.432092 -3.53412 
184 3.47991 4.1713 47.4338 -2.2397 -2.22072 -0.544365 -0.28657 -0.558755 0.456083 -3.53404 
185 -0.760746 4.27348 48.7284 -2.60139 -3.07337 -0.666333 0.0965594 -0.842768 -0.423418 -3.53517 
186 -0.811621 4.26877 51.3169 -1.98837 -2.35094 0.313308 0.0838954 -0.84222 -0.652847 -3.53805 
187 -1.17889 6.41384 50.0002 -2.0552 -2.54103 -0.33044 0.0856863 -1.27532 -0.621592 -3.53574 
188 1.12775 5.31799 50.0156 -1.56929 -2.07901 -0.0208599 -0.110072 -0.944558 -0.598135 -3.53484 
189 -1.25707 6.40546 52.5877 -1.61246 -2.48693 0.643205 0.175825 -1.31631 -0.613008 -3.53281 
190 3.43505 4.21346 50.0156 -1.75958 -1.85325 -0.0396825 -0.309449 -0.668217 0.310744 -3.5349 
191 1.50027 3.18358 51.3264 -1.43166 -1.70129 0.657696 -0.172624 -0.548769 -0.132879 -3.53273 
192 1.46587 3.20964 53.9052 0.0267057 0.953994 -0.795869 0.566307 -0.560979 0.138976 -3.37565 
193 1.06597 5.33731 52.6041 -1.24918 -1.89859 0.44149 -0.236986 -0.801313 -0.410801 -3.52779 
194 3.38747 4.26008 52.6041 -1.41015 -1.71364 0.389821 -0.390658 -0.639422 0.58737 -3.52746 
195 -0.866323 4.2769 53.8949 -0.0508595 -0.206124 -1.18044 0.079375 -1.26166 1.02744 -3.38132 
196 1.3298 4.1174 -56.3442 5.06942 2.90559 1.60242 -1.25473 -0.273892 0.110264 -2.79034 
197 -1.33605 6.40133 55.1665 4.18005 2.79746 1.28997 0.319921 -1.5232 0.197877 -3.26107 
198 1.00488 5.36129 55.1754 5.64209 6.63186 2.70775 0.369864 -0.636457 -0.032616 -3.15047 
199 1.98371 6.26223 -55.1334 6.93988 9.11552 2.92914 0.134187 -0.847906 -0.525664 -3.02309 
200 3.34328 4.30996 55.1754 5.53065 7.35768 2.86911 0.118703 -0.278624 0.562637 -3.15115 
201 2.87095 2.09325 -56.362 4.04253 6.0065 1.88101 -3.16453 0.252645 0.341791 -2.79939 
202 2.84551 2.1252 -53.8874 0.165006 0.76329 -3.0265 -0.982108 -0.732814 -0.162364 -3.51266 
203 3.53831 4.21674 -55.1525 6.03166 6.27391 1.75935 0.302436 -1.21951 -0.0444737 -3.1433 
204 5.07312 2.13635 -55.1525 6.04997 7.03886 2.00315 0.446064 -0.528119 0.0805362 -3.14511 
205 1.29262 4.16451 -53.8815 0.861249 -0.348259 -3.6751 -0.408876 -0.573879 0.839002 -3.51412 
206 1.24176 4.17585 -51.3147 -1.28715 -1.91131 -0.377631 -0.214933 -0.880912 0.220677 -3.53903 
207 1.90264 6.26187 -52.5941 -0.918013 -1.4568 -0.573061 -0.184186 -1.16805 0.820093 -3.52792 
208 3.4607 4.22944 -52.6036 -0.748985 -0.925868 0.0953878 -0.677521 -0.496108 0.191352 -3.53019 
209 1.82403 6.27282 -50.0101 -1.64467 -2.3299 -0.269755 -0.197657 -1.27814 0.428644 -3.53673 
210 5.01221 2.17771 -52.6036 -1.34193 -0.348593 0.0545628 -0.502572 0.0191645 0.991486 -3.52952 
211 2.80522 2.14769 -51.32 -1.1037 -0.946942 -0.113661 -0.278215 -0.333537 0.262312 -3.53415 
212 2.77239 2.17446 -48.7405 -1.97214 -1.83889 -0.549302 -0.29078 -0.220417 0.333957 -3.53088 
213 3.40036 4.25787 -50.02 -1.4325 -1.65474 -0.142497 -0.408982 -0.70634 0.284947 -3.53497 
214 4.971 2.23184 -50.02 -1.84451 -1.27439 -0.115364 -0.29658 0.023128 0.834655 -3.53501 
215 1.18979 4.18023 -48.7356 -2.18136 -2.7604 -0.795382 -0.179445 -0.843901 0.274245 -3.5364 
216 1.1401 4.18595 -46.1542 -2.64062 -3.19336 -0.982549 -0.160886 -0.828484 0.394884 -3.53605 
217 1.7489 6.27832 -47.4307 -2.10382 -2.8353 -0.684143 -0.211844 -1.23685 0.539441 -3.53589 
218 3.3453 4.28722 -47.4412 -1.90057 -2.20985 -0.567788 -0.299976 -0.635109 0.333249 -3.53415 
219 1.67516 6.28984 -44.8497 -2.47375 -3.19178 -0.87084 -0.197387 -1.24023 0.599208 -3.53535 
220 4.93506 2.28423 -47.4404 -2.3243 -1.78941 -0.544028 -0.21071 0.108916 0.862747 -3.5342 
221 2.7423 2.20147 -46.1595 -2.36814 -2.26996 -0.742528 -0.228867 -0.158141 0.389439 -3.53075 
222 2.71407 2.2299 -43.5778 -2.68142 -2.59277 -0.95311 -0.211474 -0.146568 0.410253 -3.53038 
223 3.29198 4.31921 -44.8606 -2.23758 -2.57439 -0.722489 -0.258312 -0.621008 0.369038 -3.53393 
224 4.90232 2.33713 -44.8596 -2.66097 -2.14403 -0.725325 -0.175244 0.14641 0.894423 -3.53393 
225 1.09111 4.19424 -43.5724 -2.98021 -3.51297 -1.20991 -0.146814 -0.836509 0.421421 -3.53554 
226 1.04199 4.20331 -40.9914 -3.24103 -3.78807 -1.45076 -0.143661 -0.849914 0.428679 -3.5351 
227 1.60158 6.30314 -42.2688 -2.75711 -3.4977 -1.09737 -0.195924 -1.25813 0.615645 -3.53485 
228 3.23955 4.35271 -42.2798 -2.51189 -2.87072 -0.921854 -0.240417 -0.623405 0.387087 -3.53361 
229 1.5275 6.31718 -39.6891 -2.96879 -3.7648 -1.34095 -0.202363 -1.27771 0.619819 -3.53439 
230 4.87108 2.39097 -42.2788 -2.94511 -2.42623 -0.930757 -0.163655 0.158156 0.919852 -3.5336 
231 2.68635 2.25914 -40.9967 -2.93816 -2.85445 -1.18257 -0.207935 -0.144726 0.424546 -3.53007 
232 2.6587 2.28902 -38.4172 -3.15225 -3.06968 -1.42414 -0.212203 -0.144408 0.436225 -3.52982 
233 3.18731 4.38732 -39.6999 -2.72995 -3.11078 -1.1451 -0.234408 -0.628729 0.397697 -3.53334 
234 4.84039 2.44581 -39.6989 -3.18257 -2.64422 -1.15424 -0.163708 0.162735 0.941803 -3.53333 
235 0.992448 4.21271 -38.412 -3.44146 -4.03246 -1.70152 -0.148164 -0.86293 0.430211 -3.53469 
236 0.942435 4.22237 -35.8351 -3.58309 -4.24274 -1.95678 -0.157394 -0.873745 0.425121 -3.53431 
237 1.45274 6.33177 -37.1116 -3.11168 -3.98837 -1.59283 -0.212895 -1.29426 0.61505 -3.53399 
238 3.135 4.42292 -37.1221 -2.89202 -3.29452 -1.37848 -0.237432 -0.635794 0.399964 -3.53315 
239 1.37735 6.34693 -34.5372 -3.18662 -4.15724 -1.83924 -0.223235 -1.30724 0.596425 -3.53368 
240 4.80996 2.50168 -37.121 -3.37044 -2.80082 -1.38658 -0.173649 0.161987 0.955894 -3.53315 
241 2.63102 2.31951 -35.84 -3.32269 -3.23878 -1.67007 -0.223671 -0.147005 0.442047 -3.52964 
242 2.60328 2.35052 -33.2657 -3.44496 -3.35955 -1.91002 -0.242118 -0.155799 0.438165 -3.52955 
243 3.08256 4.4594 -34.5471 -2.99588 -3.42056 -1.60839 -0.248807 -0.64779 0.388663 -3.53307 
244 4.77971 2.55843 -34.5459 -3.50345 -2.89802 -1.6158 -0.193595 0.150976 0.957074 -3.53306 
245 0.892015 4.2323 -33.2612 -3.66528 -4.40992 -2.20509 -0.167979 -0.882539 0.409377 -3.534 
246 0.841261 4.2424 -30.6907 -3.69545 -4.53126 -2.43293 -0.176916 -0.890041 0.381956 -3.5338 
247 1.30145 6.3625 -31.9663 -3.20356 -4.26941 -2.0639 -0.230321 -1.31763 0.561656 -3.5335 
248 3.02987 4.49645 -31.9753 -3.04626 -3.49609 -1.82215 -0.266847 -0.66559 0.362657 -3.53307 
249 1.22509 6.37814 -29.3989 -3.18033 -4.33454 -2.2558 -0.233101 -1.32591 0.514334 -3.53342 
250 4.74949 2.6158 -31.974 -3.58409 -2.94514 -1.82968 -0.221972 0.127335 0.945217 -3.53306 
251 2.5754 2.38185 -30.6946 -3.52051 -3.43617 -2.13275 -0.265772 -0.171349 0.424376 -3.52954 
252 2.54724 2.41328 -28.1267 -3.55789 -3.4791 -2.32988 -0.2917 -0.191185 0.404046 -3.52958 
253 2.97676 4.53365 -29.4069 -3.05561 -3.5351 -2.0115 -0.288557 -0.686677 0.326473 -3.53312 
254 4.71899 2.67343 -29.4055 -3.62283 -2.95746 -2.01963 -0.255385 0.0939256 0.924772 -3.5331 
255 0.790214 4.25245 -28.1235 -3.68826 -4.61266 -2.6307 -0.182409 -0.896583 0.346051 -3.53368 
256 0.738893 4.26221 -25.5594 -3.65891 -4.66385 -2.79492 -0.18387 -0.902106 0.306322 -3.53362 
257 1.14831 6.39344 -26.8348 -3.13447 -4.36638 -2.41168 -0.23172 -1.33206 0.460609 -3.53343 
258 2.92308 4.57062 -26.8416 -3.0381 -3.55127 -2.1731 -0.31067 -0.707924 0.286153 -3.53318 
259 1.07114 6.40809 -24.2734 -3.07926 -4.3773 -2.53392 -0.226641 -1.33622 0.405939 -3.53347 
260 4.68792 2.73103 -26.84 -3.6321 -2.94953 -2.18165 -0.290173 0.0557446 0.900743 -3.53316 
261 2.51866 2.44459 -25.5619 -3.56815 -3.49989 -2.49747 -0.317141 -0.212229 0.381185 -3.52963 
262 2.48957 2.47563 -22.9998 -3.56119 -3.50796 -2.63548 -0.340229 -0.232245 0.358697 -3.52968 
263 2.86874 4.60707 -24.279 -3.00561 -3.55482 -2.30711 -0.330624 -0.727161 0.246274 -3.53323 
264 4.65607 2.7884 -24.2773 -3.62267 -2.93226 -2.31549 -0.323641 0.0171738 0.876709 -3.53321 
265 0.687311 4.27152 -22.9979 -3.61923 -4.69433 -2.92688 -0.181481 -0.906536 0.266628 -3.5336 
266 0.63549 4.28024 -20.4386 -3.57705 -4.71163 -3.03042 -0.175772 -0.909949 0.22933 -3.5336 
267 0.993603 6.42186 -21.7142 -3.02331 -4.37648 -2.62757 -0.21838 -1.33885 0.353861 -3.53354 
268 2.81369 4.64282 -21.7187 -2.96661 -3.55244 -2.4157 -0.346936 -0.743377 0.209387 -3.53327 
269 0.915743 6.43462 -19.1567 -2.97148 -4.37004 -2.69819 -0.207483 -1.34049 0.306096 -3.5336 
270 4.62331 2.84541 -21.7169 -3.60257 -2.91265 -2.42331 -0.354283 -0.0189937 0.854685 -3.53325 
271 2.45993 2.5063 -20.4399 -3.54447 -3.50979 -2.74632 -0.36004 -0.250057 0.338148 -3.52972 
272 2.42975 2.53657 -17.8819 -3.52308 -3.50941 -2.83358 -0.376343 -0.265298 0.32013 -3.52976 
273 2.75794 4.67779 -19.1603 -2.9265 -3.54816 -2.50202 -0.359075 -0.756414 0.176493 -3.5333 
274 4.58958 2.90197 -19.1585 -3.57729 -2.89475 -2.50845 -0.381501 -0.0514453 0.835525 -3.53328 
275 0.583456 4.28831 -17.8811 -3.53697 -4.72108 -3.11024 -0.167382 -0.91254 0.195489 -3.53361 
276 0.531242 4.29568 -15.3249 -3.50133 -4.72617 -3.17086 -0.156932 -0.91455 0.1653 -3.53362 
277 0.837602 6.44631 -16.6007 -2.92607 -4.36175 -2.75085 -0.194512 -1.34162 0.263103 -3.53367 
278 2.70152 4.71192 -16.6034 -2.88837 -3.54424 -2.56949 -0.367132 -0.766592 0.147653 -3.53332 
279 0.759219 6.4569 -14.0457 -2.88774 -4.3537 -2.7897 -0.18001 -1.3426 0.22461 -3.53372 
280 4.5549 2.95804 -16.6016 -3.55028 -2.88056 -2.57458 -0.405254 -0.0798977 0.819371 -3.53331 
281 2.39905 2.5664 -15.3253 -3.50019 -3.50907 -2.9011 -0.389313 -0.278084 0.304657 -3.52978 
282 2.36784 2.59579 -12.7698 -3.47768 -3.50993 -2.95246 -0.399317 -0.288772 0.291454 -3.5298 
283 2.64449 4.7452 -14.0477 -2.85377 -3.54179 -2.62138 -0.371525 -0.774432 0.122452 -3.53334 
284 4.51929 3.01361 -14.0459 -3.52358 -2.87083 -2.62513 -0.425786 -0.104658 0.80597 -3.53333 
285 0.478876 4.30236 -12.7698 -3.47102 -4.72904 -3.21619 -0.144968 -0.9162 0.13847 -3.53364 
286 0.426384 4.30833 -10.2155 -3.44607 -4.73095 -3.24939 -0.131943 -0.917652 0.114479 -3.53365 
287 0.680627 6.4664 -11.4915 -2.85617 -4.34698 -2.81794 -0.164445 -1.34362 0.18999 -3.53376 
288 2.58688 4.77765 -11.493 -2.82323 -3.5413 -2.66057 -0.372791 -0.78048 0.100271 -3.53335 
289 0.601857 6.47481 -8.93795 -2.83057 -4.34203 -2.83796 -0.148188 -1.34474 0.158488 -3.53379 
290 4.48279 3.06867 -11.4911 -3.49827 -2.86561 -2.66307 -0.443456 -0.126304 0.794891 -3.53334 
291 2.33618 2.62473 -10.2152 -3.45649 -3.51246 -2.9907 -0.406784 -0.297797 0.280121 -3.52982 
292 2.30407 2.65324 -7.66125 -3.43699 -3.51678 -3.01826 -0.412117 -0.305572 0.270239 -3.52983 
293 2.52875 4.80926 -8.93889 -2.79668 -3.54285 -2.68941 -0.371455 -0.78521 0.0804515 -3.53336 
294 4.44545 3.12321 -8.93701 -3.47482 -2.86462 -2.69076 -0.458633 -0.145484 0.785647 -3.53335 
295 0.373787 4.3136 -7.66173 -3.42601 -4.73254 -3.27284 -0.118211 -0.918976 0.0927284 -3.53366 
296 0.321105 4.31819 -5.1084 -3.41018 -4.73413 -3.28829 -0.104026 -0.92014 0.0726239 -3.53366 
297 0.522935 6.48215 -6.3848 -2.80999 -4.33897 -2.85142 -0.131483 -1.34588 0.129342 -3.53382 
298 2.47012 4.84006 -6.38532 -2.77378 -3.54637 -2.70975 -0.367951 -0.788983 0.0623771 -3.53336 
299 0.443892 6.48844 -3.83194 -2.79361 -4.33773 -2.85944 -0.114451 -1.34688 0.101843 -3.53383 
300 4.4073 3.17723 -6.38343 -3.45332 -2.86744 -2.71002 -0.471635 -0.162809 0.777765 -3.53336 
301 2.27156 2.68131 -5.10773 -3.4192 -3.5228 -3.03697 -0.415654 -0.312441 0.261412 -3.52984 
302 2.23866 2.70894 -2.55449 -3.40301 -3.53043 -3.0481 -0.417622 -0.318661 0.253296 -3.52984 
303 2.41104 4.87003 -3.83209 -2.75407 -3.55175 -2.72289 -0.362584 -0.792042 0.0455069 -3.53337 
304 4.36838 3.23072 -3.83018 -3.4337 -2.87368 -2.72216 -0.482683 -0.178801 0.770822 -3.53336 
305 0.268357 4.32209 -2.55533 -3.39793 -4.73585 -3.29688 -0.0895398 -0.921026 0.0536089 -3.53367 
306 0.364761 6.49367 -1.27924 -2.78097 -4.33825 -2.86268 -0.097103 -1.34758 0.0753502 -3.53385 
307 2.35153 4.89919 -1.27905 -2.73725 -3.55889 -2.72967 -0.355512 -0.79454 0.0293802 -3.53337 
308 4.32872 3.28367 -1.27713 -3.41588 -2.88305 -2.72798 -0.491887 -0.193888 0.764455 -3.53336 
309 2.43656 7.09145 -0.00288215 -2.21275 -3.35743 -2.40113 -0.318042 -1.19862 -0.18425 -3.53292 
310 0.434818 8.66873 -0.0032626 -2.24626 -4.0121 -2.49487 -0.0999994 -1.73384 0.0853884 -3.53361 