ITEM: TIMESTEP
409
ITEM: NUMBER OF ATOMS
37664
ITEM: BOX BOUNDS ff ff ff
-100 100
-100 100
-156.15 156.15
ITEM: ATOMS id x y z v_peratom_sxx v_peratom_syy v_peratom_szz v_peratom_sxy v_peratom_sxz v_peratom_syz c_atomPE 
1 -0.00391601 -0.00203819 0.00095469 -5.17829 -5.16988 -9.5395 0.000830215 -0.013421 -0.0369451 -3.51526 
2 -0.00411455 -0.00179277 2.55416 -5.17751 -5.16917 -9.53786 0.000116489 -0.014138 -0.0362428 -3.51527 
3 -0.00432423 -0.00150693 5.10746 -5.17232 -5.16442 -9.5264 -0.000809588 -0.0134785 -0.0354592 -3.51532 
4 -0.004539 -0.00118616 7.66097 -5.16195 -5.15504 -9.50376 -0.00194209 -0.0110048 -0.0347002 -3.51542 
5 -0.0047436 -0.000844077 10.2149 -5.14543 -5.14019 -9.46794 -0.00320338 -0.00659458 -0.0339446 -3.51558 
6 -0.00491557 -0.000499075 12.7693 -5.12165 -5.1187 -9.4164 -0.00445546 -0.000527854 -0.033037 -3.51582 
7 -0.00503001 -0.000169453 15.3246 -5.08924 -5.089 -9.34596 -0.00554177 0.00655965 -0.0317591 -3.51614 
8 -0.0050654 0.00013078 17.8809 -5.04629 -5.04887 -9.25277 -0.00633628 0.0138432 -0.0299354 -3.51657 
9 -0.00500844 0.000393806 20.4386 -4.99008 -4.99527 -9.13209 -0.00677552 0.0205161 -0.0275178 -3.51712 
10 -0.00485619 0.000617349 22.9982 -4.91668 -4.92405 -8.97842 -0.00686509 0.0259588 -0.0246171 -3.51781 
11 -0.00461551 0.000802346 25.5599 -4.82082 -4.82977 -8.78607 -0.00666568 0.0298299 -0.0214826 -3.51867 
12 -0.00430035 0.000950131 28.1242 -4.69614 -4.70605 -8.55084 -0.00626867 0.0320778 -0.0184422 -3.5197 
13 -0.00392787 0.00106029 30.6916 -4.53668 -4.54699 -8.27312 -0.00576977 0.03289 -0.0158207 -3.52089 
14 -0.00351458 0.00112982 33.2622 -4.34073 -4.35099 -7.96159 -0.00524709 0.0326072 -0.0138601 -3.52219 
15 -0.00307319 0.00115344 35.8361 -4.11604 -4.12593 -7.6337 -0.0047489 0.0316317 -0.0126737 -3.52346 
16 -0.0026109 0.00112437 38.4127 -3.87859 -3.88789 -7.30775 -0.00429179 0.030343 -0.0122502 -3.52457 
17 -0.00212868 0.00103453 40.9919 -3.63994 -3.6485 -6.99018 -0.0038643 0.0290466 -0.0125077 -3.52546 
18 -0.0016189 0.000873281 43.5732 -3.40109 -3.40877 -6.66821 -0.00342481 0.0280289 -0.0133724 -3.52619 
19 -0.00106148 0.000624765 46.157 -3.13697 -3.14341 -6.30498 -0.0028687 0.0275635 -0.014797 -3.52693 
20 -0.000430069 0.00026407 48.7436 -2.75394 -2.75749 -5.86491 -0.00160117 0.0271766 -0.0166816 -3.52781 
21 5.95933e-07 -4.11185e-08 51.3317 -1.9232 -1.92294 -4.92083 0.00012881 -0.00139208 0.000871993 -3.53204 
22 4.01304e-07 -1.42881e-06 53.9138 -0.851898 -0.851909 -8.9178 1.33408e-07 -2.65593e-05 -7.18173e-05 -3.48169 
23 8.71386e-07 -1.98378e-06 56.3885 1.68559 1.6856 1.87689 -1.50359e-05 2.35242e-05 -4.88657e-07 -2.55581 
24 -1.23087e-07 -1.12453e-06 -53.8876 -2.60698 -2.607 -6.54962 -1.64101e-05 9.24105e-06 -3.24236e-05 -3.40183 
25 1.02659e-07 -1.55837e-06 -51.3239 -2.07917 -2.07924 -5.57942 -0.000384934 0.000970155 0.0021193 -3.52873 
26 -0.00025215 -0.000602948 -48.7462 -2.69399 -2.69242 -6.14763 0.00515882 -0.0159123 -0.0376888 -3.5264 
27 -0.000578698 -0.00144714 -46.1646 -3.0209 -3.01786 -6.34769 0.00914983 -0.0136992 -0.0350604 -3.52678 
28 -0.000810406 -0.00208619 -43.5822 -3.30247 -3.29772 -6.60793 0.0102495 -0.0101064 -0.0329954 -3.52635 
29 -0.000959338 -0.00257132 -41.0007 -3.55808 -3.55127 -6.89607 0.010486 -0.00646501 -0.0315255 -3.52575 
30 -0.00105279 -0.00293257 -38.4209 -3.80855 -3.79959 -7.20455 0.0101647 -0.00307958 -0.0304454 -3.52491 
31 -0.00111846 -0.00318798 -35.8434 -4.05512 -4.04418 -7.52938 0.00942018 -0.000267274 -0.0296418 -3.52385 
32 -0.0011837 -0.00335153 -33.2685 -4.28839 -4.27587 -7.85947 0.00838297 0.00164564 -0.0291222 -3.52262 
33 -0.00127296 -0.00343711 -30.6968 -4.4953 -4.48177 -8.17727 0.00721244 0.00244568 -0.0289475 -3.52133 
34 -0.00140393 -0.00345914 -28.1282 -4.66729 -4.65342 -8.46567 0.00607448 0.00213003 -0.0291705 -3.52011 
35 -0.00158426 -0.00343141 -25.5628 -4.80339 -4.78976 -8.71417 0.00509979 0.000931687 -0.0297888 -3.51903 
36 -0.00181072 -0.00336572 -23 -4.90764 -4.89471 -8.9198 0.00435149 -0.000751272 -0.0307304 -3.51811 
37 -0.00207107 -0.0032714 -20.4397 -4.98592 -4.97393 -9.08497 0.00381904 -0.00249912 -0.0318802 -3.51737 
38 -0.00234801 -0.00315577 -17.8812 -5.04402 -5.03304 -9.2147 0.00344009 -0.00401728 -0.0331208 -3.51678 
39 -0.00262397 -0.00302507 -15.3243 -5.08684 -5.07678 -9.31472 0.00313652 -0.00522182 -0.0343553 -3.51632 
40 -0.0028852 -0.00288471 -12.7685 -5.11819 -5.10887 -9.39047 0.00284596 -0.0062315 -0.0355018 -3.51596 
41 -0.0031241 -0.00273844 -10.2136 -5.14092 -5.13215 -9.44665 0.00253532 -0.00727654 -0.036473 -3.5157 
42 -0.0033399 -0.00258673 -7.65945 -5.15712 -5.14868 -9.48711 0.00219413 -0.00856598 -0.0371682 -3.51551 
43 -0.00353766 -0.00242545 -5.10572 -5.16824 -5.15992 -9.51484 0.00181546 -0.0101637 -0.0374936 -3.51538 
44 -0.00372634 -0.00224614 -2.5523 -5.17517 -5.16682 -9.53191 0.00137645 -0.0119117 -0.037405 -3.5153 
45 0.0922816 2.15814 1.27649 -4.05314 -5.13718 -3.83745 -0.050826 -0.449718 -0.000717674 -3.52908 
46 0.065758 2.1594 3.82965 -4.04837 -5.13688 -3.83126 -0.039618 -0.449718 -0.0101419 -3.52909 
47 0.0392349 2.16035 6.38296 -4.04451 -5.13441 -3.8167 -0.028395 -0.448449 -0.0199733 -3.52911 
48 0.0127514 2.16098 8.93658 -4.04212 -5.1295 -3.79259 -0.0169676 -0.445933 -0.0304517 -3.52914 
49 -0.0136494 2.16127 11.4907 -4.042 -5.12172 -3.75735 -0.00518987 -0.442481 -0.0417534 -3.52918 
50 -0.0399278 2.16121 14.0454 -4.04493 -5.11028 -3.70892 0.00692652 -0.438595 -0.0540568 -3.52922 
51 -0.066054 2.16077 16.6012 -4.05129 -5.09393 -3.64472 0.0191507 -0.434796 -0.0676082 -3.52928 
52 -0.092012 2.15995 19.1581 -4.06072 -5.07068 -3.56141 0.0310373 -0.431485 -0.0827399 -3.52934 
53 -0.1178 2.15877 21.7166 -4.07177 -5.0376 -3.45491 0.0419781 -0.428867 -0.0997941 -3.52942 
54 -0.143428 2.15723 24.277 -4.08131 -4.9904 -3.32057 0.0512779 -0.42694 -0.118909 -3.52953 
55 -0.168913 2.15537 26.8398 -4.08363 -4.9231 -3.15399 0.0582596 -0.42553 -0.139614 -3.52967 
56 -0.194276 2.15327 29.4055 -4.06943 -4.82797 -2.95268 0.0624389 -0.424336 -0.160269 -3.52986 
57 -0.21953 2.151 31.9742 -4.02554 -4.69692 -2.7187 0.0638088 -0.422968 -0.177753 -3.53012 
58 -0.24467 2.14866 34.5463 -3.93826 -4.52556 -2.46098 0.0631543 -0.420957 -0.188596 -3.53046 
59 -0.269665 2.14629 37.1216 -3.80212 -4.31927 -2.1937 0.062015 -0.417764 -0.192542 -3.53087 
60 -0.294469 2.14381 39.6996 -3.62551 -4.09273 -1.92827 0.0619405 -0.412974 -0.194654 -3.53128 
61 -0.319053 2.14113 42.2798 -3.4204 -3.85665 -1.66496 0.0636305 -0.406727 -0.201062 -3.53164 
62 -0.343449 2.13816 44.8621 -3.19342 -3.60785 -1.39222 0.0663231 -0.399608 -0.218428 -3.53193 
63 -0.367813 2.13511 47.4464 -2.91508 -3.29628 -1.10674 0.0667101 -0.393943 -0.238771 -3.53223 
64 -0.392512 2.13371 50.032 -2.4325 -2.80151 -0.493695 0.0610066 -0.413265 -0.205423 -3.53324 
65 -0.418483 2.1304 52.6263 -1.76577 -2.00553 -0.561417 0.0455018 -0.308951 -0.729947 -3.52457 
66 -0.44812 2.14653 55.1778 6.97658 7.73843 2.4309 0.0330135 -0.597322 1.77022 -3.02528 
67 0.649859 2.05055 -55.162 1.38944 0.842377 -0.678397 -0.188253 -0.0991979 1.20761 -3.26036 
68 0.633027 2.08274 -52.6122 -1.11196 -2.2187 -0.457713 -0.374489 -0.489289 -0.161409 -3.53566 
69 0.607028 2.08678 -50.0319 -2.00555 -2.5557 -0.875545 -0.169353 -0.429924 0.0761609 -3.53397 
70 0.58125 2.08803 -47.4533 -2.63773 -3.07241 -1.20993 -0.124933 -0.403735 0.147129 -3.5329 
71 0.556393 2.09137 -44.8713 -3.05949 -3.44206 -1.36812 -0.103366 -0.39799 0.191716 -3.53225 
72 0.53174 2.09553 -42.2893 -3.3588 -3.72758 -1.59643 -0.094059 -0.401699 0.203932 -3.53182 
73 0.506989 2.09995 -39.7087 -3.60282 -3.98349 -1.84663 -0.0923662 -0.407154 0.210307 -3.53141 
74 0.48204 2.10449 -37.13 -3.80541 -4.22136 -2.10984 -0.096439 -0.412299 0.214153 -3.53097 
75 0.456883 2.10915 -34.5538 -3.96336 -4.43611 -2.37888 -0.104611 -0.416745 0.213169 -3.53055 
76 0.431547 2.11392 -31.9807 -4.07234 -4.61796 -2.64169 -0.114556 -0.420767 0.204668 -3.53018 
77 0.406055 2.11874 -29.4109 -4.13561 -4.76169 -2.88463 -0.123741 -0.424607 0.188656 -3.52988 
78 0.38042 2.12352 -26.8443 -4.16353 -4.86944 -3.09768 -0.130297 -0.428242 0.167728 -3.52965 
79 0.354649 2.12816 -24.2806 -4.16802 -4.94758 -3.27665 -0.133385 -0.431521 0.144959 -3.52949 
80 0.328751 2.13257 -21.7194 -4.15902 -5.00333 -3.4221 -0.132985 -0.43432 0.122613 -3.52936 
81 0.302743 2.1367 -19.1603 -4.14358 -5.04296 -3.5374 -0.129514 -0.436614 0.101938 -3.52928 
82 0.276644 2.14053 -16.6028 -4.12622 -5.07128 -3.627 -0.123544 -0.438486 0.0834122 -3.52921 
83 0.250473 2.14403 -14.0467 -4.10958 -5.09175 -3.69537 -0.115635 -0.440104 0.0670524 -3.52917 
84 0.224241 2.1472 -11.4916 -4.09497 -5.10673 -3.74655 -0.10628 -0.441668 0.0526538 -3.52913 
85 0.197956 2.15004 -8.93721 -4.08283 -5.11779 -3.78391 -0.0959047 -0.443339 0.039931 -3.52911 
86 0.171618 2.15254 -6.38337 -4.07303 -5.12592 -3.81009 -0.0848833 -0.44517 0.0285752 -3.52909 
87 0.145224 2.15472 -3.82989 -4.06514 -5.13171 -3.82705 -0.0735418 -0.447049 0.0182587 -3.52908 
88 0.118776 2.15658 -1.27665 -4.05866 -5.13543 -3.836 -0.0621386 -0.448696 0.00862292 -3.52907 
89 0.2152 4.32479 -0.000785226 -3.39171 -4.74251 -3.30011 -0.0732767 -0.929003 0.0362048 -3.53365 
90 0.285148 6.49731 1.27497 -2.77281 -4.34462 -2.86324 -0.078566 -1.35609 0.0483936 -3.53382 
91 2.20497 2.73569 -5.68746e-05 -3.38872 -3.54407 -3.05084 -0.416115 -0.328348 0.246056 -3.52984 
92 2.17129 2.76248 2.55306 -3.37441 -3.55334 -3.0496 -0.416011 -0.334369 0.238149 -3.52984 
93 2.29122 4.92709 1.2753 -2.72477 -3.57066 -2.73017 -0.345743 -0.802686 0.01168 -3.53336 
94 4.28792 3.33572 1.27703 -3.3994 -2.89798 -2.72672 -0.498191 -0.212048 0.758688 -3.53336 
95 0.162259 4.32735 2.55215 -3.38285 -4.74384 -3.29734 -0.058913 -0.929269 0.0178881 -3.53366 
96 0.109314 4.32924 5.10517 -3.37671 -4.74502 -3.28826 -0.0442307 -0.928079 -0.000785189 -3.53367 
97 0.20575 6.50048 3.82764 -2.7632 -4.34724 -2.85789 -0.0609427 -1.35522 0.0222347 -3.53383 
98 2.23084 4.95466 3.82833 -2.71078 -3.5799 -2.72604 -0.336245 -0.804355 -0.00440929 -3.53336 
99 0.126422 6.50261 6.38046 -2.75872 -4.35135 -2.84766 -0.0426464 -1.35328 -0.00454278 -3.53384 
100 4.24679 3.38762 3.83009 -3.38364 -2.91177 -2.72152 -0.504557 -0.226649 0.752214 -3.53336 
101 2.13726 2.7888 5.10628 -3.36103 -3.56397 -3.04166 -0.414394 -0.339775 0.230238 -3.52984 
102 2.10291 2.81463 7.65975 -3.34909 -3.57617 -3.02622 -0.410809 -0.344699 0.222139 -3.52983 
103 2.17014 4.98137 6.38152 -2.69989 -3.59091 -2.7155 -0.324685 -0.805267 -0.0207259 -3.53336 
104 4.20498 3.43891 6.38333 -3.36966 -2.92846 -2.71008 -0.508633 -0.240986 0.745483 -3.53336 
105 0.0564324 4.33046 7.65841 -3.37458 -4.74613 -3.27221 -0.029 -0.925617 -0.020203 -3.53368 
106 0.00367978 4.33098 10.212 -3.37796 -4.74719 -3.24828 -0.013107 -0.922383 -0.040734 -3.53369 
107 0.0472511 6.50368 8.93355 -2.76115 -4.35718 -2.83206 -0.0236854 -1.35087 -0.032458 -3.53383 
108 2.10919 5.00718 8.93502 -2.69332 -3.60375 -2.69774 -0.310771 -0.805818 -0.0377102 -3.53336 
109 -0.0316955 6.50367 11.4871 -2.77191 -4.36485 -2.81036 -0.00424985 -1.34874 -0.0620818 -3.53382 
110 4.16254 3.48955 8.93688 -3.35818 -2.94824 -2.69159 -0.509977 -0.255421 0.738294 -3.53336 
111 2.06829 2.83994 10.2136 -3.33934 -3.59001 -3.00203 -0.404792 -0.349446 0.213618 -3.52983 
112 2.03342 2.86471 12.768 -3.33261 -3.6053 -2.96744 -0.395984 -0.354503 0.20434 -3.52982 
113 2.04803 5.03209 11.489 -2.69229 -3.61833 -2.67166 -0.294355 -0.806601 -0.0559388 -3.53336 
114 4.1195 3.53952 11.4909 -3.34994 -2.97124 -2.66488 -0.50819 -0.270462 0.730372 -3.53336 
115 -0.0488888 4.33079 12.7662 -3.38817 -4.748 -3.21519 0.00336343 -0.919009 -0.0627898 -3.5337 
116 -0.101237 4.32986 15.3211 -3.40606 -4.74804 -3.17118 0.0201155 -0.916046 -0.0868731 -3.5337 
117 -0.110375 6.50256 14.0412 -2.79181 -4.37429 -2.78141 0.0153237 -1.34748 -0.0940758 -3.53379 
118 1.98671 5.05604 14.0436 -2.69777 -3.63428 -2.63581 -0.275439 -0.808303 -0.0761291 -3.53336 
119 -0.188769 6.50032 16.5961 -2.82107 -4.38511 -2.74347 0.0346209 -1.3474 -0.129198 -3.53375 
120 4.07588 3.58878 14.0455 -3.3456 -2.9974 -2.62836 -0.502945 -0.28676 0.721315 -3.53336 
121 1.99834 2.8889 15.3233 -3.32949 -3.62146 -2.92037 -0.384177 -0.360482 0.193847 -3.5298 
122 1.96306 2.91251 17.8795 -3.33014 -3.63753 -2.85825 -0.369292 -0.368041 0.181569 -3.52978 
123 1.92525 5.07901 16.5991 -2.71028 -3.65095 -2.58829 -0.254127 -0.811599 -0.0991073 -3.53335 
124 4.03169 3.63729 16.601 -3.34552 -3.02643 -2.58006 -0.493979 -0.305072 0.71056 -3.53335 
125 -0.153346 4.32819 17.8771 -3.43179 -4.74626 -3.1138 0.0366896 -0.913821 -0.113576 -3.5337 
126 -0.205215 4.32579 20.4343 -3.46477 -4.7409 -3.03976 0.0525269 -0.912382 -0.143501 -3.53369 
127 -0.266873 6.49697 19.1521 -2.85938 -4.39639 -2.694 0.0532186 -1.34847 -0.168249 -3.5337 
128 1.86363 5.10099 19.1557 -2.72984 -3.6673 -2.52666 -0.230561 -0.817072 -0.125732 -3.53333 
129 -0.344691 6.4925 21.7094 -2.90588 -4.40643 -2.62945 0.0707334 -1.35033 -0.211926 -3.53363 
130 3.98693 3.68502 19.1576 -3.34963 -3.05776 -2.51752 -0.481073 -0.326196 0.697399 -3.53334 
131 1.92759 2.93551 20.4371 -3.33401 -3.65195 -2.77794 -0.351343 -0.377787 0.166877 -3.52975 
132 1.89191 2.95789 22.9964 -3.33949 -3.6623 -2.67582 -0.330439 -0.390154 0.149224 -3.52972 
133 1.80187 5.12193 21.7137 -2.7558 -3.68173 -2.44786 -0.204906 -0.825173 -0.156752 -3.5333 
134 3.9416 3.73194 21.7156 -3.35723 -3.09023 -2.43785 -0.464068 -0.350871 0.681033 -3.53331 
135 -0.256851 4.32266 22.9932 -3.50335 -4.72908 -2.94487 0.0670176 -0.911533 -0.177052 -3.53369 
136 -0.308271 4.31887 25.5541 -3.54417 -4.70627 -2.8242 0.0795201 -0.910925 -0.214046 -3.53369 
137 -0.422228 6.48696 24.2683 -2.95883 -4.41226 -2.5451 0.0868323 -1.35237 -0.260513 -3.53356 
138 1.73996 5.14186 24.2735 -2.78653 -3.69169 -2.34837 -0.177422 -0.836164 -0.192537 -3.53327 
139 -0.499483 6.48042 26.8293 -3.01488 -4.40888 -2.43522 0.101185 -1.35386 -0.313336 -3.5335 
140 3.89571 3.77803 24.2754 -3.3666 -3.12179 -2.33778 -0.442979 -0.379581 0.660744 -3.53328 
141 1.85604 2.97967 25.5578 -3.34328 -3.66473 -2.54803 -0.306878 -0.405189 0.128412 -3.52967 
142 1.81999 3.00088 28.1217 -3.33951 -3.65327 -2.39122 -0.281375 -0.422169 0.105109 -3.52962 
143 1.6779 5.1608 26.8355 -2.81876 -3.69319 -2.22446 -0.148651 -0.849969 -0.2326 -3.53322 
144 3.84928 3.82328 26.8373 -3.37442 -3.14878 -2.21391 -0.418234 -0.412167 0.636241 -3.53323 
145 -0.359493 4.31449 28.1175 -3.58102 -4.66566 -2.6728 0.0893741 -0.910171 -0.253087 -3.53372 
146 -0.410531 4.30968 30.6838 -3.60317 -4.59773 -2.48735 0.0959855 -0.908898 -0.290871 -3.5338 
147 -0.576456 6.47305 29.3927 -3.06764 -4.38837 -2.29363 0.11335 -1.35413 -0.367963 -3.53347 
148 1.61573 5.17886 29.4001 -2.84634 -3.68012 -2.07297 -0.119748 -0.865792 -0.274822 -3.53317 
149 -0.653146 6.46512 31.9592 -3.10578 -4.33892 -2.11555 0.122645 -1.35273 -0.419453 -3.53349 
150 3.8024 3.86776 29.4017 -3.37471 -3.16496 -2.0631 -0.391028 -0.447146 0.608289 -3.53317 
151 1.78384 3.02164 30.6885 -3.31856 -3.61916 -2.20384 -0.255381 -0.439042 0.0815652 -3.52957 
152 1.74771 3.04211 33.2586 -3.2669 -3.55128 -1.98799 -0.231252 -0.45217 0.0620109 -3.52955 
153 1.55354 5.19626 31.9677 -2.8586 -3.64348 -1.89236 -0.0928018 -0.881428 -0.314594 -3.53311 
154 3.75526 3.91159 31.9692 -3.35737 -3.16033 -1.8835 -0.363632 -0.48087 0.579567 -3.53311 
155 -0.461388 4.30466 33.2534 -3.59463 -4.49118 -2.26897 0.0991076 -0.906601 -0.322225 -3.53396 
156 -0.512027 4.29963 35.8265 -3.53747 -4.33709 -2.02633 0.0993107 -0.902355 -0.342594 -3.53423 
157 -0.729537 6.45701 34.5292 -3.11158 -4.24506 -1.90128 0.128242 -1.34914 -0.460739 -3.53362 
158 1.49147 5.21337 34.5386 -2.83925 -3.57125 -1.68436 -0.0707364 -0.892603 -0.344889 -3.53308 
159 -0.805561 6.44911 37.1028 -3.06363 -4.09218 -1.66095 0.129832 -1.34206 -0.486128 -3.53388 
160 3.70816 3.95503 34.5399 -3.30714 -3.12095 -1.67623 -0.339204 -0.507443 0.555067 -3.53307 
161 1.71179 3.06249 35.8321 -3.17043 -3.43959 -1.75089 -0.211632 -0.457623 0.0509971 -3.52961 
162 1.67622 3.0829 38.4086 -3.02347 -3.28232 -1.50327 -0.197625 -0.454963 0.0481741 -3.52977 
163 1.42979 5.23055 37.1128 -2.76923 -3.45069 -1.45582 -0.0562073 -0.894011 -0.359737 -3.53313 
164 3.66146 3.99834 37.1141 -3.20581 -3.03251 -1.44794 -0.320525 -0.521411 0.539977 -3.53313 
165 -0.562365 4.29465 38.4027 -3.42273 -4.13783 -1.7746 0.0982638 -0.894963 -0.353478 -3.53458 
166 -0.61231 4.28957 40.9816 -3.25791 -3.90946 -1.52616 0.0981885 -0.883881 -0.363854 -3.53492 
167 -0.881088 6.4415 39.6796 -2.95024 -3.87988 -1.41446 0.128664 -1.32973 -0.498692 -3.53425 
168 1.36871 5.24801 39.6902 -2.63797 -3.27712 -1.21858 -0.049586 -0.884358 -0.362371 -3.5333 
169 -0.95601 6.43389 42.2588 -2.77979 -3.6283 -1.17954 0.12744 -1.31212 -0.511198 -3.53461 
170 3.61542 4.04169 39.6913 -3.0431 -2.88998 -1.21096 -0.307986 -0.523952 0.53293 -3.53329 
171 1.64102 3.10324 40.9876 -2.83441 -3.08838 -1.25285 -0.187546 -0.449416 0.0455623 -3.53 
172 1.60609 3.12338 43.5688 -2.61322 -2.86586 -0.997276 -0.178875 -0.44752 0.0348535 -3.53027 
173 1.3083 5.26559 42.2698 -2.45191 -3.05972 -0.982741 -0.0480564 -0.870131 -0.367195 -3.53355 
174 3.56997 4.08498 42.2709 -2.82641 -2.70182 -0.977052 -0.299402 -0.524864 0.523073 -3.53354 
175 -0.661842 4.28417 43.5623 -3.05424 -3.66241 -1.28048 0.100237 -0.869949 -0.382115 -3.53523 
176 -0.711127 4.27844 46.1446 -2.82378 -3.39473 -1.01761 0.103596 -0.855319 -0.4137 -3.53549 
177 -1.03039 6.42607 44.8394 -2.55937 -3.34446 -0.962872 0.12753 -1.29153 -0.528906 -3.53496 
178 1.24842 5.28314 44.851 -2.21831 -2.8033 -0.749912 -0.0498825 -0.859803 -0.385728 -3.53386 
179 -1.10458 6.41838 47.4203 -2.29599 -3.01705 -0.776401 0.129765 -1.27252 -0.542045 -3.53528 
180 3.52493 4.12813 44.852 -2.56111 -2.47543 -0.752033 -0.292117 -0.533053 0.501824 -3.53383 
181 1.57124 3.14329 46.1516 -2.36458 -2.61741 -0.719088 -0.171231 -0.456868 0.00765725 -3.53054 
182 1.53633 3.16338 48.7364 -2.08956 -2.36153 -0.347754 -0.183224 -0.479896 -0.0323197 -3.53015 
183 1.1886 5.30066 47.4331 -1.94357 -2.50521 -0.518799 -0.0633753 -0.86614 -0.430864 -3.53412 
184 3.48002 4.17121 47.4338 -2.24097 -2.22056 -0.54398 -0.286172 -0.559272 0.457731 -3.53404 
185 -0.760666 4.2734 48.7285 -2.60301 -3.07462 -0.669958 0.0971273 -0.846665 -0.419523 -3.53516 
186 -0.811621 4.26877 51.3169 -1.98842 -2.35107 0.311833 0.0838922 -0.841936 -0.653071 -3.53805 
187 -1.17889 6.41384 50.0002 -2.0573 -2.54162 -0.333478 0.0867513 -1.27782 -0.619784 -3.53573 
188 1.12775 5.31799 50.0156 -1.56925 -2.07904 -0.0212375 -0.110549 -0.945569 -0.597558 -3.53484 
189 -1.25707 6.40546 52.5877 -1.61242 -2.48693 0.643225 0.17579 -1.31624 -0.613066 -3.53282 
190 3.43505 4.21346 50.0156 -1.75905 -1.85302 -0.0391724 -0.30946 -0.668745 0.311592 -3.5349 
191 1.50027 3.18358 51.3264 -1.43163 -1.70133 0.657902 -0.17263 -0.548529 -0.133056 -3.53273 
192 1.46587 3.20964 53.9052 0.0267067 0.953997 -0.795861 0.566309 -0.560977 0.13898 -3.37565 
193 1.06597 5.33731 52.6041 -1.24919 -1.89858 0.44148 -0.236978 -0.80132 -0.410802 -3.52779 
194 3.38747 4.26008 52.6041 -1.41016 -1.71361 0.389818 -0.390663 -0.639432 0.587357 -3.52746 
195 -0.866323 4.2769 53.8949 -0.0508693 -0.206124 -1.18047 0.0793747 -1.26166 1.02744 -3.38132 
196 1.3298 4.1174 -56.3442 5.06942 2.90559 1.60242 -1.25473 -0.273892 0.110263 -2.79034 
197 -1.33605 6.40133 55.1665 4.18006 2.79745 1.28997 0.319923 -1.5232 0.197872 -3.26107 
198 1.00488 5.36129 55.1754 5.64207 6.63185 2.70774 0.369858 -0.636459 -0.0326244 -3.15047 
199 1.98371 6.26223 -55.1334 6.93987 9.11552 2.92914 0.134188 -0.847906 -0.525661 -3.02309 
200 3.34328 4.30996 55.1754 5.53064 7.35766 2.86911 0.118705 -0.278629 0.562631 -3.15115 
201 2.87095 2.09325 -56.362 4.04253 6.0065 1.881 -3.16453 0.252642 0.341788 -2.79939 
202 2.84551 2.1252 -53.8874 0.165002 0.763288 -3.02649 -0.982111 -0.732814 -0.162365 -3.51266 
203 3.53831 4.21674 -55.1525 6.03166 6.27391 1.75936 0.302437 -1.21951 -0.0444741 -3.1433 
204 5.07312 2.13635 -55.1525 6.04997 7.03886 2.00315 0.446065 -0.528121 0.0805346 -3.14511 
205 1.29262 4.16451 -53.8815 0.861257 -0.348264 -3.67507 -0.408882 -0.573878 0.839001 -3.51412 
206 1.24176 4.17585 -51.3147 -1.28699 -1.91112 -0.376268 -0.214921 -0.880482 0.220622 -3.53903 
207 1.90264 6.26187 -52.5941 -0.917894 -1.45676 -0.572995 -0.184163 -1.16801 0.820118 -3.52792 
208 3.4607 4.22944 -52.6036 -0.748885 -0.925837 0.0954543 -0.677506 -0.496043 0.191392 -3.53019 
209 1.82403 6.27282 -50.0101 -1.64506 -2.32851 -0.267824 -0.199707 -1.28161 0.42872 -3.53672 
210 5.01221 2.17771 -52.6036 -1.34185 -0.348569 0.0546235 -0.502556 0.0192204 0.991513 -3.52952 
211 2.80522 2.14769 -51.32 -1.10367 -0.94686 -0.112809 -0.278134 -0.333071 0.262135 -3.53414 
212 2.77225 2.17449 -48.7405 -1.96995 -1.83798 -0.546498 -0.291001 -0.226807 0.332663 -3.53088 
213 3.40036 4.25787 -50.02 -1.4319 -1.65423 -0.140227 -0.408588 -0.709716 0.283861 -3.53497 
214 4.971 2.23184 -50.02 -1.84395 -1.27426 -0.113964 -0.296514 0.0199184 0.833972 -3.53501 
215 1.18964 4.18027 -48.7356 -2.17885 -2.75895 -0.79116 -0.179832 -0.850239 0.27589 -3.5364 
216 1.13967 4.18607 -46.1541 -2.63757 -3.19327 -0.977359 -0.162775 -0.833534 0.395954 -3.53604 
217 1.74857 6.27835 -47.4306 -2.10109 -2.8357 -0.67968 -0.212595 -1.24117 0.539929 -3.53588 
218 3.345 4.28725 -47.4411 -1.89905 -2.21015 -0.563807 -0.300418 -0.640773 0.331494 -3.53414 
219 1.6746 6.28991 -44.8496 -2.47048 -3.19279 -0.865941 -0.198702 -1.24445 0.599417 -3.53534 
220 4.93478 2.28427 -47.4403 -2.32274 -1.78986 -0.541563 -0.211429 0.103541 0.861834 -3.5342 
221 2.7419 2.20156 -46.1594 -2.36503 -2.27002 -0.739223 -0.230144 -0.163566 0.388434 -3.53074 
222 2.71347 2.23002 -43.5776 -2.67743 -2.59335 -0.949761 -0.213411 -0.151694 0.40914 -3.53037 
223 3.29144 4.31925 -44.8605 -2.23457 -2.57534 -0.71841 -0.259076 -0.62616 0.367351 -3.53392 
224 4.90183 2.33718 -44.8595 -2.65768 -2.14517 -0.722568 -0.176465 0.14146 0.893508 -3.53393 
225 1.09046 4.1944 -43.5722 -2.97657 -3.51323 -1.20434 -0.14949 -0.841315 0.422004 -3.53553 
226 1.04116 4.20349 -40.9911 -3.23669 -3.78843 -1.44498 -0.146852 -0.854396 0.428866 -3.53509 
227 1.60083 6.30322 -42.2685 -2.75318 -3.49905 -1.09207 -0.197581 -1.26217 0.61551 -3.53484 
228 3.23881 4.35276 -42.2796 -2.50816 -2.87213 -0.917563 -0.241523 -0.628256 0.385331 -3.5336 
229 1.5266 6.31726 -39.6887 -2.96423 -3.76631 -1.33539 -0.204227 -1.28141 0.61942 -3.53439 
230 4.8704 2.391 -42.2786 -2.94099 -2.42801 -0.927665 -0.165245 0.15346 0.918859 -3.5336 
231 2.68559 2.25926 -40.9965 -2.93362 -2.8552 -1.17932 -0.210335 -0.149557 0.423263 -3.53006 
232 2.65781 2.28912 -38.4169 -3.14736 -3.07044 -1.42107 -0.214895 -0.148796 0.434852 -3.52981 
233 3.18642 4.38735 -39.6996 -2.72568 -3.11247 -1.14074 -0.235765 -0.633158 0.395898 -3.53333 
234 4.83957 2.44582 -39.6987 -3.178 -2.6464 -1.15096 -0.165514 0.158331 0.940706 -3.53333 
235 0.991485 4.21288 -38.4116 -3.43649 -4.03287 -1.69567 -0.151683 -0.86692 0.430148 -3.53468 
236 0.941376 4.22251 -35.8346 -3.57763 -4.24322 -1.95102 -0.161071 -0.877097 0.424952 -3.53431 
237 1.45172 6.33183 -37.1111 -3.10663 -3.98997 -1.58719 -0.214834 -1.29745 0.614499 -3.53398 
238 3.134 4.42291 -37.1217 -2.88736 -3.29635 -1.37417 -0.238915 -0.639654 0.398212 -3.53315 
239 1.37627 6.34695 -34.5366 -3.18133 -4.15893 -1.8337 -0.225113 -1.30983 0.59582 -3.53367 
240 4.80903 2.50165 -37.1207 -3.36563 -2.80317 -1.38323 -0.175511 0.157973 0.954714 -3.53315 
241 2.63003 2.31956 -35.8395 -3.3176 -3.23947 -1.66721 -0.226501 -0.150799 0.440703 -3.52964 
242 2.60223 2.35051 -33.2651 -3.43977 -3.36018 -1.90737 -0.244935 -0.158889 0.436973 -3.52955 
243 3.08149 4.45933 -34.5466 -2.99101 -3.42247 -1.60418 -0.250278 -0.650972 0.387061 -3.53306 
244 4.7787 2.55834 -34.5455 -3.49857 -2.90039 -1.61244 -0.195363 0.147447 0.95586 -3.53306 
245 0.8909 4.2324 -33.2606 -3.65953 -4.41055 -2.19958 -0.171631 -0.88516 0.409224 -3.53401 
246 0.840131 4.24243 -30.6899 -3.68967 -4.53211 -2.42781 -0.180345 -0.891912 0.381917 -3.5338 
247 1.30035 6.36246 -31.9656 -3.19834 -4.27119 -2.05866 -0.231993 -1.31956 0.561075 -3.53349 
248 3.02876 4.49631 -31.9747 -3.04139 -3.49804 -1.8181 -0.268162 -0.668041 0.3613 -3.53307 
249 1.22403 6.37804 -29.3981 -3.17556 -4.33645 -2.25102 -0.234426 -1.32723 0.513826 -3.53342 
250 4.74843 2.61563 -31.9735 -3.57928 -2.94745 -1.82635 -0.223509 0.124361 0.944034 -3.53306 
251 2.57432 2.38177 -30.6939 -3.51531 -3.43682 -2.13028 -0.268422 -0.173681 0.423454 -3.52954 
252 2.54616 2.41313 -28.126 -3.55275 -3.47989 -2.32753 -0.294032 -0.192766 0.403493 -3.52958 
253 2.97567 4.53345 -29.4062 -3.05096 -3.53711 -2.00762 -0.289577 -0.688415 0.325434 -3.53312 
254 4.71792 2.67318 -29.4049 -3.6182 -2.95965 -2.01634 -0.256571 0.0915371 0.923694 -3.53311 
255 0.789106 4.25241 -28.1227 -3.68274 -4.61379 -2.62606 -0.185419 -0.897761 0.346197 -3.53368 
256 0.737841 4.26211 -25.5585 -3.65393 -4.66534 -2.79084 -0.186293 -0.902709 0.306699 -3.53362 
257 1.14732 6.39327 -26.8339 -3.13052 -4.36846 -2.40751 -0.232572 -1.33284 0.460197 -3.53342 
258 2.92204 4.57034 -26.8408 -3.03389 -3.5534 -2.1694 -0.311274 -0.709031 0.285471 -3.53318 
259 1.07026 6.40786 -24.2724 -3.07647 -4.37959 -2.53046 -0.226921 -1.3366 0.405622 -3.53347 
260 4.68688 2.7307 -26.8393 -3.62772 -2.95165 -2.17843 -0.290913 0.053935 0.899836 -3.53316 
261 2.5176 2.44436 -25.5612 -3.56314 -3.50099 -2.49519 -0.319019 -0.213119 0.381068 -3.52963 
262 2.48856 2.47533 -22.999 -3.55639 -3.50954 -2.63319 -0.341541 -0.232543 0.359044 -3.52968 
263 2.86777 4.60672 -24.2781 -3.00207 -3.55716 -2.30359 -0.330716 -0.727764 0.245954 -3.53323 
264 4.65507 2.78799 -24.2765 -3.61861 -2.93438 -2.31235 -0.323863 0.0159013 0.876032 -3.53321 
265 0.686344 4.27135 -22.9969 -3.61506 -4.69623 -2.92337 -0.183192 -0.906721 0.267248 -3.5336 
266 0.63463 4.28001 -20.4376 -3.57397 -4.71399 -3.02747 -0.176704 -0.909905 0.230168 -3.5336 
267 0.992859 6.42156 -21.7131 -3.02202 -4.37906 -2.62484 -0.218026 -1.339 0.353613 -3.53353 
268 2.81282 4.64241 -21.7177 -2.96395 -3.5551 -2.41233 -0.346448 -0.743638 0.209395 -3.53327 
269 0.915156 6.43427 -19.1556 -2.97202 -4.37301 -2.69617 -0.206481 -1.34062 0.305869 -3.5336 
270 4.62237 2.84493 -21.7161 -3.59893 -2.91491 -2.42023 -0.353937 -0.0198024 0.854279 -3.53325 
271 2.459 2.50594 -20.439 -3.54001 -3.51202 -2.74395 -0.3607 -0.249902 0.338943 -3.52972 
272 2.4289 2.53615 -17.8809 -3.51915 -3.51241 -2.83106 -0.376291 -0.264867 0.321311 -3.52975 
273 2.75719 4.67732 -19.1593 -2.92494 -3.55128 -2.49875 -0.357965 -0.756526 0.176757 -3.5333 
274 4.58874 2.90144 -19.1576 -3.57418 -2.89732 -2.50541 -0.38056 -0.0518984 0.835415 -3.53329 
275 0.582723 4.28802 -17.88 -3.53525 -4.72394 -3.10777 -0.167524 -0.912498 0.196488 -3.53361 
276 0.530642 4.29535 -15.3237 -3.50122 -4.72957 -3.16878 -0.156327 -0.914801 0.16638 -3.53362 
277 0.837179 6.44591 -16.5995 -2.9287 -4.36518 -2.74944 -0.19291 -1.34204 0.262835 -3.53366 
278 2.7009 4.7114 -16.6023 -2.88813 -3.54792 -2.56626 -0.365392 -0.766792 0.148064 -3.53332 
279 0.758954 6.45646 -14.0444 -2.89258 -4.35768 -2.7888 -0.177914 -1.34369 0.224236 -3.53371 
280 4.55415 2.95747 -16.6007 -3.54786 -2.88361 -2.57155 -0.403712 -0.0801456 0.81956 -3.53331 
281 2.3983 2.56594 -15.3243 -3.497 -3.51295 -2.89838 -0.38852 -0.277605 0.306119 -3.52978 
282 2.3672 2.5953 -12.7687 -3.47541 -3.51469 -2.94952 -0.397802 -0.28852 0.293059 -3.5298 
283 2.644 4.74465 -14.0466 -2.85501 -3.5461 -2.61818 -0.369195 -0.775004 0.122866 -3.53334 
284 4.51865 3.01302 -14.0449 -3.522 -2.87449 -2.6221 -0.423678 -0.104897 0.806436 -3.53333 
285 0.478408 4.30198 -12.7685 -3.47267 -4.73299 -3.21443 -0.143706 -0.9171 0.139554 -3.53363 
286 0.426029 4.30791 -10.2141 -3.44941 -4.73541 -3.2479 -0.130162 -0.919593 0.115519 -3.53363 
287 0.680493 6.46592 -11.4902 -2.86307 -4.35154 -2.81747 -0.162025 -1.3458 0.189466 -3.53374 
288 2.58651 4.77708 -11.4918 -2.82596 -3.54618 -2.65741 -0.369981 -0.781736 0.100528 -3.53335 
289 0.601807 6.4743 -8.93654 -2.83894 -4.34711 -2.83787 -0.145661 -1.3484 0.157806 -3.53377 
290 4.48225 3.06807 -11.4901 -3.49759 -2.86989 -2.66005 -0.440878 -0.126764 0.795586 -3.53334 
291 2.33563 2.62423 -10.2141 -3.45524 -3.51797 -2.9876 -0.404631 -0.298065 0.281719 -3.52981 
292 2.30361 2.65273 -7.66007 -3.43671 -3.52274 -3.01515 -0.409508 -0.306629 0.271688 -3.52982 
293 2.52847 4.80869 -8.93767 -2.8007 -3.54812 -2.68641 -0.368364 -0.787441 0.0803964 -3.53335 
294 4.445 3.12262 -8.93598 -3.47499 -2.86937 -2.68782 -0.455763 -0.146401 0.786496 -3.53335 
295 0.373512 4.31315 -7.6603 -3.43064 -4.73743 -3.27169 -0.116101 -0.922309 0.0937223 -3.53364 
296 0.320859 4.3177 -5.10689 -3.41534 -4.73928 -3.28763 -0.101833 -0.92506 0.073603 -3.53364 
297 0.522902 6.48161 -6.38332 -2.81875 -4.34438 -2.85174 -0.129099 -1.35122 0.128535 -3.53379 
298 2.46988 4.83949 -6.38405 -2.77856 -3.55168 -2.70708 -0.364873 -0.792381 0.0618862 -3.53336 
299 0.443795 6.48788 -3.8304 -2.80127 -4.34317 -2.86023 -0.112449 -1.35381 0.100966 -3.5338 
300 4.40691 3.17667 -6.38236 -3.45411 -2.87234 -2.70729 -0.468738 -0.164374 0.778666 -3.53335 
301 2.27115 2.68081 -5.10649 -3.41966 -3.5288 -3.03408 -0.412871 -0.314469 0.262597 -3.52983 
302 2.23827 2.70846 -2.5532 -3.40376 -3.53593 -3.04573 -0.415033 -0.321705 0.254137 -3.52983 
303 2.41079 4.86949 -3.83077 -2.75882 -3.55667 -2.7208 -0.359878 -0.796626 0.0445128 -3.53336 
304 4.36802 3.23022 -3.82907 -3.43469 -2.87827 -2.71978 -0.480094 -0.181118 0.771655 -3.53336 
305 0.26808 4.32157 -2.55376 -3.40255 -4.74098 -3.2969 -0.0875452 -0.927456 0.0546093 -3.53365 
306 0.364524 6.49311 -1.27767 -2.78588 -4.34328 -2.86399 -0.0956633 -1.35558 0.0744526 -3.53382 
307 2.35122 4.8987 -1.27769 -2.74092 -3.56298 -2.72838 -0.35353 -0.800099 0.0278856 -3.53336 
308 4.32834 3.28324 -1.27599 -3.41648 -2.88685 -2.72613 -0.489942 -0.196937 0.765093 -3.53336 
309 2.43623 7.09098 -0.00153187 -2.21616 -3.36017 -2.40113 -0.317178 -1.20557 -0.187819 -3.53291 
310 0.434484 8.66815 -0.00180132 -2.24785 -4.01611 -2.49642 -0.0993053 -1.74204 0.0832177 -3.53357 