ITEM: TIMESTEP
0
ITEM: NUMBER OF ATOMS
37664
ITEM: BOX BOUNDS ff ff ff
-100 100
-100 100
-156.15 156.15
ITEM: ATOMS id x y z v_peratom_sxx v_peratom_syy v_peratom_szz v_peratom_sxy v_peratom_sxz v_peratom_syz c_atomPE 
1 -0.00340361 -0.00161789 -0.000366335 -5.18113 -5.16895 -9.54296 0.000195061 -0.00829865 -0.0471555 -3.51524 
2 -0.00362138 -0.00136238 2.5528 -5.1789 -5.16755 -9.53898 -0.000849523 -0.00665546 -0.0464463 -3.51526 
3 -0.00381815 -0.00109159 5.10608 -5.17238 -5.16215 -9.52492 -0.00195203 -0.00447076 -0.0454499 -3.51532 
4 -0.00399149 -0.000807549 7.65962 -5.16106 -5.1523 -9.49981 -0.00309992 -0.0016551 -0.0441688 -3.51544 
5 -0.00413635 -0.000514243 10.2136 -5.14414 -5.13724 -9.46203 -0.00425229 0.00177411 -0.042572 -3.51562 
6 -0.00424565 -0.000216948 12.7682 -5.12052 -5.11582 -9.40925 -0.00534583 0.00566726 -0.040613 -3.51586 
7 -0.00431171 7.86428e-05 15.3235 -5.0887 -5.08642 -9.33837 -0.00631106 0.00976675 -0.0382624 -3.51619 
8 -0.00432799 0.000366992 17.88 -5.04653 -5.04674 -9.24542 -0.00709007 0.0137698 -0.0355402 -3.51661 
9 -0.00429036 0.000642721 20.4379 -4.991 -4.99364 -9.12544 -0.0076479 0.0174002 -0.0325337 -3.51716 
10 -0.00419749 0.000900152 22.9976 -4.91803 -4.92287 -8.97268 -0.00797541 0.0204616 -0.0293945 -3.51785 
11 -0.00405041 0.00113272 25.5594 -4.82225 -4.82899 -8.78125 -0.00808627 0.0228627 -0.0263218 -3.5187 
12 -0.0038516 0.00133254 28.1239 -4.69732 -4.70558 -8.54684 -0.0080111 0.0246144 -0.023533 -3.51973 
13 -0.00360391 0.00149044 30.6913 -4.53739 -4.54679 -8.2698 -0.00779004 0.0258056 -0.0212273 -3.52092 
14 -0.00330974 0.00159626 33.262 -4.3409 -4.35106 -7.95886 -0.00746361 0.0265682 -0.0195507 -3.52221 
15 -0.00297037 0.00163921 35.8359 -4.11575 -4.12629 -7.6315 -0.00706366 0.0270436 -0.0185802 -3.52348 
16 -0.00258556 0.00160792 38.4127 -3.87797 -3.88855 -7.30606 -0.00660714 0.0273558 -0.0183308 -3.52458 
17 -0.00215291 0.00148955 40.9918 -3.63916 -3.64945 -6.98899 -0.00609112 0.0275984 -0.018788 -3.52547 
18 -0.0016649 0.00126701 43.5732 -3.40032 -3.40994 -6.66749 -0.00547711 0.0279056 -0.0199806 -3.52619 
19 -0.00110411 0.000914245 46.157 -3.13633 -3.14465 -6.30473 -0.00462737 0.0284478 -0.0219878 -3.52694 
20 -0.000451368 0.0003914 48.7436 -2.75379 -2.75846 -5.86508 -0.00261429 0.0285157 -0.0247254 -3.52781 
21 5.95933e-07 -4.11185e-08 51.3317 -1.9233 -1.92294 -4.92096 0.000198228 -0.0014747 0.00131079 -3.53204 
22 4.01304e-07 -1.42881e-06 53.9138 -0.851854 -0.851867 -8.91779 -8.52908e-07 -2.32068e-05 -7.26974e-05 -3.48169 
23 8.71386e-07 -1.98378e-06 56.3885 1.68561 1.68561 1.87695 -1.29417e-05 2.13743e-05 -9.32931e-07 -2.55581 
24 -1.23087e-07 -1.12453e-06 -53.8876 -2.60707 -2.60709 -6.54969 -1.38778e-05 8.30652e-06 -3.29996e-05 -3.40183 
25 1.02659e-07 -1.55837e-06 -51.3239 -2.07919 -2.07925 -5.58066 -0.000519891 0.000595126 0.00243309 -3.52873 
26 -0.000135556 -0.00068832 -48.7463 -2.69705 -2.69533 -6.15243 0.0068797 -0.00870569 -0.0430292 -3.52638 
27 -0.000284009 -0.0016342 -46.1647 -3.02439 -3.02116 -6.35377 0.0122593 -0.00648661 -0.0395227 -3.52675 
28 -0.000367358 -0.00233053 -43.5824 -3.30577 -3.30093 -6.61434 0.0138167 -0.00319265 -0.036463 -3.52632 
29 -0.000393498 -0.00283706 -41.001 -3.5611 -3.55435 -6.90222 0.0143118 -0.00033962 -0.0341697 -3.52572 
30 -0.000387601 -0.00319292 -38.4213 -3.81115 -3.80241 -7.21013 0.014193 0.00178369 -0.0325335 -3.52489 
31 -0.000373907 -0.00342377 -35.8438 -4.05727 -4.0466 -7.53424 0.0136456 0.00295539 -0.0315144 -3.52383 
32 -0.000375101 -0.0035499 -33.269 -4.29023 -4.27785 -7.86365 0.0127998 0.00301242 -0.0311607 -3.5226 
33 -0.000411225 -0.00359006 -30.6973 -4.49709 -4.48332 -8.18094 0.0117776 0.00193635 -0.0315261 -3.52131 
34 -0.000497417 -0.0035623 -28.1288 -4.66937 -4.6546 -8.46912 0.0106892 -9.61902e-05 -0.0326101 -3.52009 
35 -0.000641664 -0.00348318 -25.5634 -4.80605 -4.79067 -8.71768 0.00961713 -0.00273006 -0.0343234 -3.51901 
36 -0.00084373 -0.00336682 -23.0007 -4.91107 -4.89542 -8.92361 0.00860501 -0.00551408 -0.036483 -3.5181 
37 -0.00109582 -0.00322408 -20.4404 -4.99016 -4.97452 -9.08925 0.00765741 -0.00802087 -0.0388501 -3.51735 
38 -0.00138487 -0.00306253 -17.882 -5.049 -5.03355 -9.21955 0.00675244 -0.00994666 -0.0411846 -3.51676 
39 -0.00169564 -0.00288703 -15.3251 -5.09238 -5.07726 -9.32021 0.00586029 -0.0111581 -0.0432888 -3.51629 
40 -0.00201347 -0.00270055 -12.7694 -5.12408 -5.10935 -9.39657 0.00495882 -0.0116808 -0.0450283 -3.51594 
41 -0.00232627 -0.00250464 -10.2146 -5.14691 -5.13261 -9.45322 0.00403963 -0.0116438 -0.0463309 -3.51567 
42 -0.00262541 -0.00229964 -7.66051 -5.16287 -5.14904 -9.49383 0.00310448 -0.0112063 -0.0471734 -3.51548 
43 -0.00290577 -0.00208473 -5.10688 -5.17338 -5.16003 -9.52116 0.00215633 -0.0104902 -0.0475667 -3.51535 
44 -0.00316523 -0.00185817 -2.55355 -5.17932 -5.1665 -9.53715 0.0011911 -0.00953741 -0.0475451 -3.51527 
45 0.0927313 2.15862 1.27494 -4.05248 -5.13342 -3.83749 -0.0522818 -0.442839 -0.00517931 -3.52909 
46 0.0662835 2.15985 3.8281 -4.0492 -5.13342 -3.82977 -0.0405346 -0.442287 -0.0145031 -3.5291 
47 0.0398603 2.16076 6.38145 -4.04759 -5.13145 -3.81377 -0.0286676 -0.441274 -0.0240289 -3.52912 
48 0.0134815 2.16134 8.93514 -4.04791 -5.1272 -3.78853 -0.016683 -0.439834 -0.0340018 -3.52914 
49 -0.0128322 2.16157 11.4893 -4.05049 -5.12012 -3.7526 -0.00461766 -0.438089 -0.0446811 -3.52917 
50 -0.0390609 2.16146 14.0443 -4.0556 -5.10933 -3.70395 0.00740983 -0.436212 -0.0563742 -3.52922 
51 -0.065188 2.161 16.6001 -4.06323 -5.09351 -3.63985 0.0191711 -0.434364 -0.0694523 -3.52927 
52 -0.0912015 2.16018 19.1572 -4.07284 -5.07065 -3.55684 0.0303226 -0.432651 -0.0843259 -3.52933 
53 -0.117094 2.15902 21.7158 -4.083 -5.03784 -3.45066 0.0404142 -0.431103 -0.101352 -3.52941 
54 -0.142864 2.15752 24.2764 -4.09077 -4.99082 -3.3166 0.0489147 -0.429672 -0.120623 -3.52952 
55 -0.168512 2.15572 26.8393 -4.09079 -4.92365 -3.15023 0.0552745 -0.428242 -0.141589 -3.52966 
56 -0.194039 2.15365 29.405 -4.07409 -4.82864 -2.94907 0.0590766 -0.426632 -0.162525 -3.52985 
57 -0.219442 2.15142 31.9738 -4.02783 -4.69772 -2.71524 0.0603214 -0.424589 -0.180253 -3.53012 
58 -0.244704 2.1491 34.546 -3.93854 -4.5265 -2.45774 0.0597574 -0.421765 -0.191282 -3.53047 
59 -0.269787 2.14673 37.1213 -3.80093 -4.32038 -2.19076 0.0588687 -0.417724 -0.195379 -3.53088 
60 -0.29464 2.14424 39.6994 -3.6234 -4.09397 -1.92571 0.0591517 -0.412126 -0.197653 -3.53128 
61 -0.319235 2.14151 42.2797 -3.41794 -3.85793 -1.66276 0.0612723 -0.405158 -0.204301 -3.53165 
62 -0.343607 2.13847 44.862 -3.19117 -3.60897 -1.39023 0.0644729 -0.397396 -0.222074 -3.53193 
63 -0.367911 2.1353 47.4464 -2.91365 -3.297 -1.10422 0.0655365 -0.390999 -0.243158 -3.53223 
64 -0.392512 2.13371 50.032 -2.43053 -2.80164 -0.491191 0.0607519 -0.411408 -0.208406 -3.53325 
65 -0.418483 2.1304 52.6263 -1.76573 -2.00554 -0.56141 0.0455099 -0.308976 -0.729881 -3.52457 
66 -0.44812 2.14653 55.1778 6.97656 7.73842 2.43093 0.0330061 -0.597324 1.77024 -3.02528 
67 0.649859 2.05055 -55.162 1.38941 0.84235 -0.678477 -0.188256 -0.0991977 1.20759 -3.26036 
68 0.633027 2.08274 -52.6122 -1.11199 -2.21871 -0.457746 -0.374494 -0.489285 -0.161373 -3.53567 
69 0.607028 2.08678 -50.0319 -2.00591 -2.55745 -0.878515 -0.167089 -0.427253 0.0745464 -3.53397 
70 0.581503 2.08791 -47.4534 -2.64012 -3.07365 -1.21528 -0.122953 -0.398124 0.144745 -3.5329 
71 0.556856 2.09117 -44.8714 -3.06215 -3.44321 -1.37364 -0.10013 -0.392981 0.189997 -3.53225 
72 0.53237 2.0953 -42.2896 -3.36175 -3.7287 -1.60211 -0.0900253 -0.397063 0.202735 -3.53182 
73 0.507752 2.0997 -39.709 -3.60602 -3.98454 -1.85227 -0.0877835 -0.402994 0.209441 -3.5314 
74 0.482905 2.10426 -37.1304 -3.8088 -4.22226 -2.11523 -0.0914745 -0.408766 0.213417 -3.53097 
75 0.457822 2.10895 -34.5544 -3.96691 -4.43674 -2.3839 -0.0994309 -0.413956 0.212377 -3.53054 
76 0.432531 2.11377 -31.9813 -4.07606 -4.61822 -2.64627 -0.109358 -0.418773 0.203658 -3.53017 
77 0.407061 2.11865 -29.4116 -4.13953 -4.76153 -2.88877 -0.118755 -0.42338 0.187295 -3.52987 
78 0.381425 2.1235 -26.845 -4.16765 -4.86881 -3.10143 -0.125755 -0.427686 0.165917 -3.52965 
79 0.355634 2.1282 -24.2814 -4.17232 -4.94648 -3.28008 -0.129487 -0.431493 0.142635 -3.52948 
80 0.329696 2.13267 -21.7203 -4.16338 -5.00178 -3.42532 -0.129869 -0.434657 0.119765 -3.52936 
81 0.303629 2.13686 -19.1612 -4.14779 -5.041 -3.5405 -0.127257 -0.437136 0.0986118 -3.52927 
82 0.277453 2.14074 -16.6039 -4.12997 -5.06894 -3.63009 -0.122163 -0.438981 0.0797033 -3.52921 
83 0.251191 2.14429 -14.0478 -4.11254 -5.08906 -3.69853 -0.115104 -0.440307 0.0630847 -3.52917 
84 0.224863 2.14751 -11.4928 -4.09687 -5.10373 -3.7498 -0.106536 -0.441252 0.0485423 -3.52913 
85 0.198486 2.15039 -8.93848 -4.08355 -5.1145 -3.78715 -0.0968427 -0.441942 0.0357466 -3.52911 
86 0.172075 2.15294 -6.38473 -4.07265 -5.12238 -3.8131 -0.0863405 -0.44246 0.0243315 -3.5291 
87 0.145639 2.15516 -3.83134 -4.06402 -5.12796 -3.82946 -0.0752892 -0.442825 0.0139325 -3.52909 
88 0.119187 2.15705 -1.27816 -4.05738 -5.13159 -3.8374 -0.0638905 -0.442984 0.00420259 -3.52909 
89 0.215557 4.32532 -0.00239164 -3.38844 -4.7378 -3.29918 -0.0748499 -0.92107 0.0350182 -3.53368 
90 0.285592 6.49785 1.27341 -2.77227 -4.34056 -2.86147 -0.0792656 -1.34754 0.0492241 -3.53385 
91 2.20538 2.73613 -0.00137945 -3.388 -3.53968 -3.05248 -0.418174 -0.324273 0.245555 -3.52984 
92 2.17176 2.76285 2.55172 -3.37493 -3.5504 -3.05012 -0.41707 -0.329683 0.238065 -3.52984 
93 2.29164 4.92752 1.27393 -2.72315 -3.5679 -2.73045 -0.346665 -0.796338 0.0136421 -3.53337 
94 4.28834 3.33607 1.27586 -3.39976 -2.89548 -2.72795 -0.4992 -0.208313 0.758347 -3.53337 
95 0.162767 4.32785 2.55055 -3.38306 -4.7399 -3.29554 -0.0597092 -0.921024 0.0167644 -3.53368 
96 0.109996 4.3297 5.10361 -3.3812 -4.74215 -3.28573 -0.0442687 -0.920495 -0.00173093 -3.53369 
97 0.206438 6.50098 3.82613 -2.76828 -4.34446 -2.85589 -0.0610791 -1.34757 0.0231075 -3.53385 
98 2.2314 4.95501 3.82697 -2.71254 -3.57847 -2.72533 -0.336097 -0.798114 -0.00215957 -3.53337 
99 0.127332 6.50305 6.37902 -2.76919 -4.35003 -2.84567 -0.0425142 -1.34745 -0.00359407 -3.53385 
100 4.24729 3.38789 3.82892 -3.38583 -2.91066 -2.72197 -0.504509 -0.222619 0.752283 -3.53337 
101 2.13782 2.78911 5.10496 -3.36346 -3.56257 -3.04095 -0.414336 -0.334953 0.230527 -3.52984 
102 2.10357 2.81487 7.65846 -3.35386 -3.57611 -3.02436 -0.409775 -0.340277 0.222697 -3.52983 
103 2.17085 4.98164 6.3802 -2.70539 -3.59065 -2.71394 -0.323704 -0.799813 -0.0184021 -3.53337 
104 4.20557 3.4391 6.38218 -3.37407 -2.92864 -2.70975 -0.507662 -0.237046 0.745978 -3.53336 
105 0.057277 4.33085 7.65693 -3.38347 -4.74447 -3.26925 -0.0285062 -0.91958 -0.0208673 -3.53369 
106 0.00464514 4.33131 10.2107 -3.39058 -4.7467 -3.2452 -0.0124614 -0.918463 -0.0410732 -3.53369 
107 0.0483204 6.50405 8.93221 -2.77583 -4.35728 -2.83031 -0.02365 -1.34738 -0.0314216 -3.53384 
108 2.11002 5.0074 8.93376 -2.7023 -3.60435 -2.69562 -0.309386 -0.80171 -0.0355469 -3.53336 
109 -0.0305578 6.50398 11.4858 -2.78899 -4.36614 -2.80897 -0.00464808 -1.34763 -0.0609835 -3.53381 
110 4.1632 3.48969 8.93576 -3.36483 -2.94945 -2.69057 -0.508413 -0.251971 0.739148 -3.53336 
111 2.06902 2.84013 10.2124 -3.34652 -3.59092 -2.99927 -0.403155 -0.34592 0.214288 -3.52982 
112 2.0342 2.86486 12.7669 -3.3418 -3.6067 -2.96415 -0.394247 -0.352223 0.204937 -3.52981 
113 2.04893 5.03226 11.4878 -2.7039 -3.61939 -2.66932 -0.293063 -0.804153 -0.0541478 -3.53336 
114 4.1202 3.53963 11.4898 -3.35848 -2.97311 -2.66333 -0.506471 -0.267835 0.731447 -3.53336 
115 -0.0478682 4.33106 12.7649 -3.40326 -4.7485 -3.21225 0.00373397 -0.917347 -0.0628429 -3.53369 
116 -0.100237 4.3301 15.32 -3.42205 -4.74925 -3.16849 0.0198535 -0.916386 -0.0867517 -3.53369 
117 -0.109268 6.50282 14.0401 -2.80932 -4.37644 -2.78037 0.0142648 -1.34835 -0.0929774 -3.53378 
118 1.9876 5.05619 14.0425 -2.7108 -3.63547 -2.63355 -0.274672 -0.80754 -0.0748616 -3.53335 
119 -0.187783 6.50056 16.5951 -2.8373 -4.38775 -2.7426 0.0328244 -1.34961 -0.128181 -3.53373 
120 4.07658 3.58888 14.0445 -3.35539 -2.99958 -2.62649 -0.501506 -0.285164 0.722433 -3.53335 
121 1.99913 2.88905 15.3222 -3.33997 -3.62297 -2.91693 -0.382834 -0.359591 0.194194 -3.52979 
122 1.9638 2.91267 17.8786 -3.34098 -3.63887 -2.85501 -0.368709 -0.368469 0.181529 -3.52977 
123 1.92606 5.07917 16.5981 -2.72342 -3.65205 -2.58632 -0.254156 -0.81229 -0.0984316 -3.53334 
124 4.03235 3.6374 16.6001 -3.35575 -3.02868 -2.57808 -0.493153 -0.304556 0.711549 -3.53334 
125 -0.15244 4.32842 17.8761 -3.44716 -4.74791 -3.11133 0.0355887 -0.915631 -0.11343 -3.53368 
126 -0.204461 4.32602 20.4335 -3.47829 -4.74274 -3.03737 0.0505613 -0.915022 -0.143475 -3.53367 
127 -0.266076 6.4972 19.1512 -2.87312 -4.39921 -2.69305 0.0507544 -1.35131 -0.167392 -3.53368 
128 1.86432 5.10115 19.1548 -2.74195 -3.66824 -2.52507 -0.231459 -0.818821 -0.125631 -3.53332 
129 -0.344123 6.49274 21.7085 -2.9165 -4.4092 -2.62813 0.0677813 -1.35319 -0.211285 -3.53362 
130 3.9875 3.68516 19.1568 -3.35948 -3.05994 -2.51561 -0.481032 -0.326663 0.698123 -3.53333 
131 1.92822 2.9357 20.4363 -3.34429 -3.65303 -2.77514 -0.351698 -0.379288 0.166383 -3.52974 
132 1.89242 2.95812 22.9957 -3.34841 -3.66313 -2.67359 -0.331714 -0.392374 0.148284 -3.52971 
133 1.80239 5.12213 21.7129 -2.76602 -3.68253 -2.44664 -0.206573 -0.827517 -0.157135 -3.53329 
134 3.94206 3.73211 21.7149 -3.36599 -3.09232 -2.43614 -0.464819 -0.352107 0.681422 -3.5333 
135 -0.256288 4.32293 22.9924 -3.51421 -4.73093 -2.94236 0.0643202 -0.9144 -0.177251 -3.53367 
136 -0.307914 4.31917 25.5534 -3.55201 -4.70805 -2.82143 0.0763269 -0.913546 -0.214515 -3.53368 
137 -0.421899 6.48721 24.2675 -2.96622 -4.41485 -2.54323 0.0836279 -1.35482 -0.260105 -3.53355 
138 1.74029 5.14208 24.2728 -2.7944 -3.69245 -2.34743 -0.179638 -0.838665 -0.193264 -3.53326 
139 -0.499381 6.48069 26.8285 -3.01925 -4.41124 -2.43271 0.0979663 -1.35566 -0.313141 -3.53349 
140 3.89603 3.77824 24.2747 -3.37378 -3.12384 -2.33636 -0.444397 -0.381307 0.660796 -3.53327 
141 1.85639 2.97994 25.5572 -3.35032 -3.66542 -2.54639 -0.308907 -0.407743 0.127104 -3.52966 
142 1.82019 3.0012 28.1212 -3.3444 -3.65393 -2.39012 -0.28391 -0.424694 0.103556 -3.5296 
143 1.67805 5.16104 26.8349 -2.82414 -3.69401 -2.22369 -0.151154 -0.852268 -0.233507 -3.53321 
144 3.84946 3.82353 26.8367 -3.37975 -3.15084 -2.2128 -0.420118 -0.414088 0.63601 -3.53322 
145 -0.359335 4.31483 28.1169 -3.58586 -4.66733 -2.66971 0.085956 -0.912236 -0.253812 -3.53372 
146 -0.41055 4.31005 30.6833 -3.60532 -4.59931 -2.48399 0.0925913 -0.910239 -0.291801 -3.5338 
147 -0.576552 6.47334 29.3921 -3.06943 -4.3905 -2.29053 0.110317 -1.35519 -0.367935 -3.53346 
148 1.61571 5.17913 29.3996 -2.84935 -3.68104 -2.07228 -0.122294 -0.867634 -0.275754 -3.53316 
149 -0.653399 6.46543 31.9587 -3.1055 -4.34083 -2.11204 0.119938 -1.35304 -0.419546 -3.53349 
150 3.80245 3.86803 29.4013 -3.37814 -3.16704 -2.06232 -0.393159 -0.448993 0.607859 -3.53316 
151 1.7839 3.02199 30.6881 -3.32132 -3.61987 -2.2032 -0.258161 -0.441245 0.0799051 -3.52955 
152 1.74766 3.04247 33.2583 -3.26777 -3.55208 -1.98773 -0.234045 -0.45385 0.0603603 -3.52954 
153 1.55338 5.19655 31.9672 -2.85955 -3.64451 -1.89169 -0.0952012 -0.882659 -0.315428 -3.5331 
154 3.75519 3.91188 31.9688 -3.35903 -3.16242 -1.883 -0.365812 -0.48243 0.579022 -3.5331 
155 -0.461548 4.30504 33.253 -3.59455 -4.49269 -2.26548 0.0959287 -0.90715 -0.323305 -3.53396 
156 -0.512286 4.30001 35.8261 -3.53574 -4.33856 -2.02287 0.0964721 -0.902108 -0.343792 -3.53423 
157 -0.729899 6.45733 34.5287 -3.10975 -4.2468 -1.8976 0.125939 -1.34874 -0.46093 -3.53362 
158 1.49121 5.21365 34.5382 -2.83856 -3.57235 -1.68368 -0.0728616 -0.893156 -0.345562 -3.53307 
159 -0.805981 6.44942 37.1024 -3.0608 -4.09377 -1.65732 0.127956 -1.34097 -0.48644 -3.53389 
160 3.708 3.95532 34.5397 -3.30731 -3.12299 -1.67598 -0.341276 -0.508578 0.554463 -3.53307 
161 1.71165 3.06286 35.8318 -3.16979 -3.44049 -1.75091 -0.21426 -0.458682 0.049423 -3.5296 
162 1.67603 3.08325 38.4084 -3.02181 -3.28331 -1.50348 -0.199961 -0.455403 0.0466762 -3.52976 
163 1.42947 5.23083 37.1126 -2.76739 -3.45181 -1.45512 -0.0579841 -0.893898 -0.360255 -3.53313 
164 3.66125 3.99863 37.1139 -3.20485 -3.03446 -1.44789 -0.322372 -0.522071 0.539328 -3.53312 
165 -0.562676 4.29503 38.4024 -3.41997 -4.13928 -1.77132 0.095832 -0.893959 -0.354811 -3.53458 
166 -0.612627 4.28991 40.9813 -3.25473 -3.91084 -1.52313 0.0961882 -0.882194 -0.365395 -3.53492 
167 -0.881517 6.44179 39.6793 -2.94696 -3.88134 -1.41103 0.127198 -1.32803 -0.499205 -3.53426 
168 1.36838 5.24827 39.69 -2.63547 -3.27819 -1.21782 -0.0509795 -0.883661 -0.362816 -3.5333 
169 -0.9564 6.43415 42.2586 -2.7766 -3.62954 -1.1763 0.126336 -1.30988 -0.512052 -3.53461 
170 3.61519 4.04196 39.6912 -3.04144 -2.89178 -1.21104 -0.309528 -0.524172 0.532199 -3.53329 
171 1.64082 3.10356 40.9875 -2.83223 -3.08939 -1.25312 -0.189505 -0.449322 0.0440683 -3.53 
172 1.60591 3.12365 43.5687 -2.61102 -2.86679 -0.997464 -0.180394 -0.44704 0.0332105 -3.53027 
173 1.30799 5.26582 42.2697 -2.44925 -3.06062 -0.981871 -0.0490572 -0.868986 -0.367719 -3.53355 
174 3.56976 4.08521 42.2708 -2.8245 -2.70337 -0.977183 -0.300583 -0.524744 0.522176 -3.53353 
175 -0.662123 4.28447 43.5622 -3.05123 -3.66356 -1.27763 0.0986692 -0.867675 -0.384012 -3.53523 
176 -0.711332 4.27865 46.1445 -2.82144 -3.39523 -1.01467 0.102467 -0.852507 -0.416227 -3.53549 
177 -1.03069 6.42628 44.8393 -2.55671 -3.34522 -0.959609 0.126714 -1.28885 -0.530324 -3.53496 
178 1.24817 5.2833 44.851 -2.21592 -2.80379 -0.748911 -0.0504988 -0.858381 -0.386542 -3.53386 
179 -1.10477 6.4185 47.4203 -2.29409 -3.01662 -0.772506 0.129169 -1.26942 -0.544391 -3.53529 
180 3.52476 4.1283 44.852 -2.55934 -2.47655 -0.752197 -0.292899 -0.532727 0.500629 -3.53383 
181 1.57111 3.14347 46.1516 -2.36279 -2.61793 -0.719062 -0.17225 -0.456192 0.00559507 -3.53054 
182 1.53627 3.16344 48.7364 -2.0884 -2.36132 -0.347685 -0.183415 -0.479174 -0.0351613 -3.53015 
183 1.18845 5.30075 47.4331 -1.94171 -2.50485 -0.517865 -0.0636545 -0.864564 -0.432114 -3.53412 
184 3.47991 4.1713 47.4338 -2.23973 -2.22073 -0.544454 -0.286587 -0.558784 0.456063 -3.53404 
185 -0.760746 4.27348 48.7284 -2.60143 -3.07338 -0.666339 0.0965484 -0.842787 -0.423424 -3.53517 
186 -0.811621 4.26877 51.3169 -1.98834 -2.35098 0.313324 0.0839037 -0.842221 -0.652843 -3.53805 
187 -1.17889 6.41384 50.0002 -2.05521 -2.54102 -0.330457 0.0856798 -1.27532 -0.621613 -3.53574 
188 1.12775 5.31799 50.0156 -1.56929 -2.07901 -0.0208708 -0.110075 -0.944582 -0.598161 -3.53484 
189 -1.25707 6.40546 52.5877 -1.6125 -2.48694 0.643174 0.17582 -1.3163 -0.613026 -3.53281 
190 3.43505 4.21346 50.0156 -1.7596 -1.85325 -0.0396955 -0.309456 -0.668229 0.310707 -3.5349 
191 1.50027 3.18358 51.3264 -1.43167 -1.70131 0.657718 -0.172626 -0.548766 -0.132871 -3.53273 
192 1.46587 3.20964 53.9052 0.0267183 0.954008 -0.795822 0.566313 -0.560966 0.138997 -3.37565 
193 1.06597 5.33731 52.6041 -1.24915 -1.89857 0.441535 -0.236975 -0.801323 -0.410827 -3.52779 
194 3.38747 4.26008 52.6041 -1.41014 -1.71359 0.389865 -0.390668 -0.639443 0.58734 -3.52746 
195 -0.866323 4.2769 53.8949 -0.0508724 -0.206098 -1.18044 0.0793685 -1.26166 1.02745 -3.38132 
196 1.3298 4.1174 -56.3442 5.06941 2.90561 1.60242 -1.25472 -0.273893 0.110261 -2.79034 
197 -1.33605 6.40133 55.1665 4.1801 2.79743 1.28999 0.319928 -1.52319 0.19785 -3.26107 
198 1.00488 5.36129 55.1754 5.64203 6.63184 2.70772 0.369839 -0.636463 -0.0326495 -3.15047 
199 1.98371 6.26223 -55.1334 6.93986 9.11552 2.9291 0.134192 -0.847903 -0.525655 -3.02309 
200 3.34328 4.30996 55.1754 5.53064 7.35762 2.86909 0.118712 -0.278643 0.562616 -3.15115 
201 2.87095 2.09325 -56.362 4.04253 6.00649 1.88098 -3.16453 0.252633 0.341779 -2.79939 
202 2.84551 2.1252 -53.8874 0.164971 0.763265 -3.02653 -0.982119 -0.732819 -0.162367 -3.51266 
203 3.53831 4.21674 -55.1525 6.03165 6.27391 1.75937 0.302437 -1.21952 -0.0444752 -3.1433 
204 5.07312 2.13635 -55.1525 6.04997 7.03886 2.00316 0.446067 -0.528122 0.0805289 -3.14511 
205 1.29262 4.16451 -53.8815 0.861246 -0.34831 -3.6751 -0.408895 -0.573878 0.839006 -3.51412 
206 1.24176 4.17585 -51.3147 -1.28711 -1.91126 -0.377492 -0.214935 -0.880895 0.22068 -3.53903 
207 1.90264 6.26187 -52.5941 -0.918034 -1.45684 -0.573136 -0.184192 -1.16806 0.820092 -3.52792 
208 3.4607 4.22944 -52.6036 -0.748949 -0.925859 0.0954517 -0.677519 -0.496107 0.191354 -3.53019 
209 1.82403 6.27282 -50.0101 -1.64461 -2.32973 -0.269563 -0.197699 -1.27825 0.428574 -3.53673 
210 5.01221 2.17771 -52.6036 -1.34191 -0.348563 0.0546258 -0.502566 0.0191634 0.991487 -3.52952 
211 2.80522 2.14769 -51.32 -1.10363 -0.94687 -0.113421 -0.278196 -0.333505 0.26232 -3.53415 
212 2.77238 2.17446 -48.7405 -1.97175 -1.83869 -0.548758 -0.290719 -0.220836 0.333787 -3.53088 
213 3.40036 4.25787 -50.02 -1.43232 -1.65456 -0.142164 -0.408933 -0.7065 0.284845 -3.53497 
214 4.971 2.23184 -50.02 -1.84427 -1.27426 -0.115045 -0.296558 0.0229509 0.834597 -3.53501 
215 1.18979 4.18023 -48.7356 -2.18096 -2.76014 -0.79497 -0.179364 -0.844142 0.274108 -3.5364 
216 1.14008 4.18595 -46.1542 -2.6401 -3.19314 -0.98205 -0.16076 -0.828671 0.394749 -3.53605 
217 1.74888 6.27831 -47.4307 -2.10349 -2.83515 -0.683738 -0.211752 -1.23696 0.539324 -3.53589 
218 3.34529 4.28722 -47.4412 -1.90027 -2.20976 -0.567289 -0.299911 -0.635353 0.333088 -3.53415 
219 1.67514 6.28983 -44.8497 -2.47333 -3.19159 -0.870447 -0.19724 -1.24035 0.599074 -3.53535 
220 4.93505 2.28423 -47.4403 -2.32395 -1.78935 -0.543569 -0.210672 0.108626 0.862658 -3.5342 
221 2.74228 2.20147 -46.1595 -2.36755 -2.26991 -0.741915 -0.228797 -0.158479 0.389287 -3.53075 
222 2.71403 2.2299 -43.5778 -2.68067 -2.59278 -0.952436 -0.21138 -0.146924 0.410074 -3.53038 
223 3.29196 4.3192 -44.8606 -2.23714 -2.57434 -0.721979 -0.258214 -0.621232 0.368865 -3.53393 
224 4.9023 2.33713 -44.8596 -2.66043 -2.14399 -0.724864 -0.17519 0.146143 0.894333 -3.53393 
225 1.09108 4.19423 -43.5724 -2.97957 -3.51276 -1.20939 -0.14664 -0.836716 0.421248 -3.53554 
226 1.04195 4.2033 -40.9914 -3.24024 -3.78783 -1.45023 -0.143435 -0.850157 0.428459 -3.5351 
227 1.60156 6.30312 -42.2688 -2.7566 -3.49749 -1.09696 -0.195726 -1.25827 0.615479 -3.53485 
228 3.23952 4.35271 -42.2798 -2.51134 -2.87068 -0.921301 -0.240294 -0.623651 0.386883 -3.53361 
229 1.52747 6.31716 -39.689 -2.96815 -3.76456 -1.34053 -0.202115 -1.27788 0.619623 -3.53439 
230 4.87105 2.39096 -42.2788 -2.94444 -2.42622 -0.93026 -0.163584 0.157877 0.919749 -3.5336 
231 2.68631 2.25914 -40.9967 -2.93727 -2.85449 -1.18184 -0.207816 -0.145132 0.424323 -3.53007 
232 2.65865 2.28902 -38.4172 -3.15122 -3.06973 -1.42338 -0.21206 -0.14486 0.435958 -3.52982 
233 3.18727 4.38732 -39.6999 -2.72929 -3.11076 -1.14451 -0.234264 -0.629003 0.397457 -3.53334 
234 4.84035 2.44581 -39.6989 -3.18179 -2.64422 -1.15371 -0.163621 0.162436 0.941683 -3.53333 
235 0.9924 4.2127 -38.412 -3.44049 -4.03218 -1.70098 -0.147887 -0.863208 0.429954 -3.53469 
236 0.942379 4.22236 -35.8351 -3.58192 -4.24242 -1.95623 -0.157078 -0.874051 0.424849 -3.53431 
237 1.4527 6.33176 -37.1116 -3.11089 -3.98808 -1.5924 -0.212601 -1.29444 0.61484 -3.53399 
238 3.13496 4.42292 -37.1221 -2.89123 -3.2945 -1.37787 -0.237273 -0.636088 0.399696 -3.53315 
239 1.37731 6.34691 -34.5371 -3.18566 -4.15692 -1.8388 -0.222909 -1.30744 0.596218 -3.53368 
240 4.80992 2.50168 -37.121 -3.36955 -2.80081 -1.38604 -0.173548 0.161675 0.95576 -3.53315 
241 2.63096 2.31951 -35.84 -3.32153 -3.23882 -1.66929 -0.223508 -0.147483 0.441749 -3.52964 
242 2.60322 2.35051 -33.2656 -3.44369 -3.35956 -1.90925 -0.241945 -0.156273 0.437854 -3.52956 
243 3.08251 4.45939 -34.5471 -2.99497 -3.42054 -1.60777 -0.24864 -0.648087 0.388381 -3.53307 
244 4.77967 2.55843 -34.5459 -3.50247 -2.89797 -1.61525 -0.193485 0.15067 0.956934 -3.53306 
245 0.891951 4.23229 -33.2612 -3.66393 -4.40956 -2.20455 -0.167646 -0.882859 0.409113 -3.53401 
246 0.841192 4.24238 -30.6906 -3.69394 -4.53088 -2.43241 -0.176598 -0.890362 0.381725 -3.5338 
247 1.3014 6.36248 -31.9663 -3.20244 -4.26906 -2.06347 -0.229985 -1.31783 0.561474 -3.5335 
248 3.02982 4.49644 -31.9753 -3.04524 -3.49604 -1.82154 -0.266684 -0.66587 0.362381 -3.53307 
249 1.22503 6.37812 -29.3989 -3.17906 -4.33418 -2.25538 -0.232783 -1.32612 0.514193 -3.53342 
250 4.74944 2.61579 -31.974 -3.58305 -2.94507 -1.82915 -0.22186 0.127056 0.945081 -3.53306 
251 2.57533 2.38184 -30.6945 -3.51918 -3.43613 -2.13203 -0.265604 -0.171788 0.424074 -3.52955 
252 2.54717 2.41327 -28.1267 -3.55657 -3.47899 -2.32923 -0.291555 -0.191565 0.403772 -3.52958 
253 2.97671 4.53364 -29.4069 -3.0545 -3.53503 -2.01092 -0.288412 -0.686924 0.326223 -3.53312 
254 4.71894 2.67342 -29.4054 -3.62176 -2.95733 -2.01912 -0.25528 0.09369 0.924654 -3.53311 
255 0.790142 4.25243 -28.1235 -3.68665 -4.61227 -2.63023 -0.182141 -0.896892 0.345869 -3.53368 
256 0.738819 4.2622 -25.5594 -3.65725 -4.66349 -2.7945 -0.183687 -0.902395 0.306197 -3.53362 
257 1.14825 6.39342 -26.8348 -3.13307 -4.36603 -2.41128 -0.231452 -1.33226 0.460519 -3.53343 
258 2.92303 4.57061 -26.8416 -3.03694 -3.55118 -2.17257 -0.310558 -0.708128 0.285941 -3.53318 
259 1.07108 6.40807 -24.2733 -3.07776 -4.37698 -2.53357 -0.226454 -1.33643 0.405902 -3.53347 
260 4.68787 2.73102 -26.84 -3.63104 -2.94937 -2.18119 -0.290087 0.0555639 0.90065 -3.53316 
261 2.51859 2.44458 -25.5619 -3.56689 -3.49973 -2.49692 -0.317038 -0.21254 0.380955 -3.52963 
262 2.48951 2.47562 -22.9998 -3.56004 -3.50775 -2.63504 -0.340182 -0.232485 0.358516 -3.52968 
263 2.86868 4.60706 -24.279 -3.00443 -3.5547 -2.30665 -0.330558 -0.727319 0.246109 -3.53323 
264 4.65602 2.7884 -24.2773 -3.62166 -2.93207 -2.31509 -0.323585 0.017049 0.876648 -3.53321 
265 0.687238 4.27151 -22.9979 -3.61758 -4.69401 -2.92652 -0.181408 -0.906801 0.266556 -3.5336 
266 0.635419 4.28023 -20.4386 -3.57546 -4.71138 -3.03013 -0.175825 -0.910185 0.229299 -3.5336 
267 0.993536 6.42185 -21.7141 -3.02172 -4.37622 -2.62726 -0.218296 -1.33904 0.353868 -3.53354 
268 2.81363 4.64282 -21.7187 -2.96544 -3.5523 -2.41533 -0.346929 -0.743495 0.209266 -3.53327 
269 0.915675 6.43461 -19.1567 -2.96983 -4.36985 -2.69793 -0.207512 -1.34066 0.306132 -3.5336 
270 4.62326 2.8454 -21.7169 -3.60164 -2.91244 -2.42298 -0.354268 -0.01907 0.854653 -3.53325 
271 2.45988 2.5063 -20.4399 -3.54345 -3.50955 -2.74601 -0.360062 -0.250237 0.338013 -3.52972 
272 2.4297 2.53657 -17.8819 -3.52219 -3.50915 -2.83339 -0.376437 -0.265433 0.320029 -3.52976 
273 2.75788 4.67778 -19.1603 -2.92535 -3.548 -2.50173 -0.359132 -0.756497 0.176408 -3.5333 
274 4.58954 2.90197 -19.1585 -3.57644 -2.89454 -2.50819 -0.381534 -0.0514862 0.835518 -3.53329 
275 0.58339 4.2883 -17.8811 -3.53545 -4.72089 -3.11002 -0.167561 -0.91274 0.195478 -3.53361 
276 0.531179 4.29568 -15.3249 -3.49987 -4.72604 -3.1707 -0.15722 -0.914697 0.165288 -3.53363 
277 0.837534 6.4463 -16.6007 -2.92435 -4.36161 -2.75064 -0.194649 -1.34175 0.26315 -3.53367 
278 2.70147 4.71192 -16.6034 -2.88725 -3.54407 -2.56929 -0.367252 -0.766644 0.147594 -3.53333 
279 0.759151 6.4569 -14.0457 -2.88597 -4.35361 -2.78953 -0.180228 -1.34265 0.224647 -3.53372 
280 4.55486 2.95804 -16.6016 -3.54951 -2.88036 -2.5744 -0.405338 -0.0799166 0.819376 -3.53331 
281 2.399 2.5664 -15.3253 -3.49942 -3.50881 -2.90103 -0.389476 -0.278186 0.304576 -3.52978 
282 2.3678 2.59579 -12.7698 -3.477 -3.50969 -2.95249 -0.399538 -0.288848 0.291378 -3.5298 
283 2.64444 4.74521 -14.0477 -2.85267 -3.54163 -2.62126 -0.371699 -0.77445 0.122407 -3.53334 
284 4.51925 3.01362 -14.0459 -3.52288 -2.87065 -2.62502 -0.425915 -0.104665 0.805977 -3.53333 
285 0.478817 4.30236 -12.7698 -3.4696 -4.72896 -3.21608 -0.145336 -0.91627 0.138435 -3.53364 
286 0.42633 4.30834 -10.2155 -3.44469 -4.73089 -3.2493 -0.132345 -0.917617 0.114407 -3.53365 
287 0.680562 6.4664 -11.4915 -2.85439 -4.34692 -2.81781 -0.164703 -1.34356 0.190001 -3.53376 
288 2.58684 4.77766 -11.493 -2.82215 -3.54115 -2.66051 -0.372996 -0.780454 0.100233 -3.53335 
289 0.601798 6.47482 -8.93796 -2.82888 -4.342 -2.83785 -0.148431 -1.34455 0.158465 -3.53379 
290 4.48276 3.06868 -11.4911 -3.49763 -2.86546 -2.66302 -0.443616 -0.126302 0.794889 -3.53334 
291 2.33614 2.62474 -10.2152 -3.45586 -3.51225 -2.9908 -0.407039 -0.297843 0.280042 -3.52982 
292 2.30405 2.65325 -7.66125 -3.43639 -3.51661 -3.0184 -0.412376 -0.305579 0.270155 -3.52983 
293 2.52871 4.80927 -8.93889 -2.79565 -3.54273 -2.6894 -0.371656 -0.785127 0.0804205 -3.53336 
294 4.44542 3.12322 -8.93701 -3.47423 -2.86451 -2.69076 -0.458801 -0.145471 0.785631 -3.53335 
295 0.373741 4.31362 -7.66173 -3.42471 -4.7325 -3.27277 -0.118592 -0.918815 0.0926133 -3.53366 
296 0.321068 4.3182 -5.1084 -3.40904 -4.73412 -3.28823 -0.104331 -0.919854 0.0724724 -3.53367 
297 0.522887 6.48216 -6.38481 -2.80853 -4.33897 -2.85133 -0.131661 -1.34557 0.129286 -3.53382 
298 2.47009 4.84007 -6.38533 -2.77285 -3.54631 -2.70975 -0.368111 -0.788835 0.062358 -3.53336 
299 0.443859 6.48845 -3.83195 -2.79256 -4.33777 -2.85937 -0.114527 -1.3465 0.101766 -3.53384 
300 4.40728 3.17724 -6.38343 -3.45279 -2.86738 -2.71006 -0.471783 -0.162775 0.777736 -3.53336 
301 2.27154 2.68132 -5.10773 -3.41866 -3.52271 -3.03712 -0.415877 -0.312398 0.26133 -3.52984 
302 2.23864 2.70895 -2.55449 -3.40257 -3.53043 -3.04824 -0.417773 -0.318564 0.253226 -3.52984 
303 2.41101 4.87004 -3.83209 -2.75334 -3.55176 -2.72289 -0.36267 -0.791833 0.0455068 -3.53337 
304 4.36836 3.23073 -3.83019 -3.43328 -2.87369 -2.72221 -0.482785 -0.178739 0.770788 -3.53336 
305 0.268333 4.3221 -2.55533 -3.39708 -4.73587 -3.29681 -0.0897252 -0.920647 0.053439 -3.53367 
306 0.364748 6.49368 -1.27924 -2.78049 -4.33832 -2.86264 -0.0970699 -1.34718 0.0752684 -3.53385 
307 2.35152 4.89919 -1.27905 -2.73681 -3.55898 -2.72965 -0.355506 -0.794291 0.0294035 -3.53337 
308 4.32871 3.28368 -1.27713 -3.41561 -2.88312 -2.72804 -0.491924 -0.193796 0.764426 -3.53336 
309 2.43655 7.09145 -0.00288923 -2.21262 -3.35756 -2.40104 -0.317935 -1.19834 -0.184147 -3.53292 
310 0.434822 8.66873 -0.00326728 -2.24641 -4.01222 -2.49493 -0.0998728 -1.73356 0.0853658 -3.53361 