ITEM: TIMESTEP
409
ITEM: NUMBER OF ATOMS
37664
ITEM: BOX BOUNDS ff ff ff
-100 100
-100 100
-156.15 156.15
ITEM: ATOMS id x y z v_peratom_sxx v_peratom_syy v_peratom_szz v_peratom_sxy v_peratom_sxz v_peratom_syz c_atomPE 
1 -0.00391727 -0.00203102 0.000960386 -5.17832 -5.16995 -9.53966 0.000747379 -0.0134066 -0.0372046 -3.51526 
2 -0.00411181 -0.00178765 2.55417 -5.17748 -5.16921 -9.53793 4.23715e-05 -0.0140095 -0.0364996 -3.51527 
3 -0.00431601 -0.00150485 5.10746 -5.17229 -5.16445 -9.52639 -0.000858242 -0.013294 -0.0356802 -3.51532 
4 -0.004524 -0.00118761 7.66097 -5.16196 -5.15507 -9.50371 -0.00195173 -0.0108458 -0.0348577 -3.51542 
5 -0.00472134 -0.000848841 10.2149 -5.14554 -5.14023 -9.4679 -0.00316905 -0.00654151 -0.0340257 -3.51558 
6 -0.00488672 -0.000506321 12.7693 -5.12188 -5.11877 -9.4164 -0.00438263 -0.000634316 -0.0330478 -3.51582 
7 -0.0049963 -0.000178035 15.3246 -5.08959 -5.08909 -9.34604 -0.00544333 0.0062799 -0.0317191 -3.51614 
8 -0.00502921 0.000121996 17.8809 -5.04674 -5.04898 -9.25293 -0.00622736 0.0134129 -0.0298683 -3.51657 
9 -0.00497226 0.000385717 20.4387 -4.99058 -4.9954 -9.13233 -0.00666939 0.0199814 -0.027444 -3.51712 
10 -0.00482222 0.000610538 22.9982 -4.9172 -4.92418 -8.97872 -0.00677127 0.0253751 -0.0245513 -3.51781 
11 -0.00458541 0.000797083 25.5599 -4.82132 -4.82991 -8.78641 -0.00658968 0.0292507 -0.0214336 -3.51866 
12 -0.0042751 0.000946421 28.1242 -4.69659 -4.70618 -8.55118 -0.00621235 0.031547 -0.0184135 -3.5197 
13 -0.00390783 0.00105794 30.6916 -4.53706 -4.5471 -8.27344 -0.00573192 0.0324376 -0.0158113 -3.52089 
14 -0.00349955 0.0011285 33.2622 -4.34104 -4.35109 -7.96187 -0.00522433 0.0322473 -0.0138655 -3.52219 
15 -0.00306258 0.0011528 35.8361 -4.11627 -4.12601 -7.63393 -0.00473686 0.0313639 -0.0126875 -3.52346 
16 -0.00260392 0.00112411 38.4127 -3.87875 -3.88795 -7.30794 -0.00428627 0.0301568 -0.0122662 -3.52457 
17 -0.00212446 0.00103444 40.9919 -3.64005 -3.64855 -6.99032 -0.00386197 0.0289262 -0.0125213 -3.52546 
18 -0.00161665 0.000873225 43.5732 -3.40117 -3.4088 -6.66832 -0.00342354 0.0279579 -0.0133807 -3.52619 
19 -0.00106048 0.000624714 46.157 -3.13702 -3.14344 -6.30505 -0.00286758 0.0275273 -0.0147994 -3.52693 
20 -0.00042978 0.000264044 48.7436 -2.75397 -2.75751 -5.86494 -0.00160022 0.0271624 -0.0166794 -3.52781 
21 5.95933e-07 -4.11185e-08 51.3317 -1.92325 -1.92298 -4.92089 0.000128023 -0.00139407 0.000871543 -3.53204 
22 4.01304e-07 -1.42881e-06 53.9138 -0.851869 -0.851879 -8.91779 3.16637e-07 -2.46325e-05 -7.17114e-05 -3.48169 
23 8.71386e-07 -1.98378e-06 56.3885 1.6856 1.68561 1.87693 -1.36298e-05 2.20746e-05 -7.19255e-07 -2.55581 
24 -1.23087e-07 -1.12453e-06 -53.8876 -2.60704 -2.60705 -6.54965 -1.61176e-05 9.82655e-06 -3.18802e-05 -3.40183 
25 1.02659e-07 -1.55837e-06 -51.3239 -2.07911 -2.07917 -5.5792 -0.000383151 0.00100733 0.0021113 -3.52873 
26 -0.0002627 -0.000601541 -48.7462 -2.69344 -2.69204 -6.14696 0.00514708 -0.0165714 -0.0375977 -3.5264 
27 -0.000603329 -0.0014445 -46.1646 -3.02022 -3.01746 -6.34691 0.00913532 -0.014403 -0.0349958 -3.52678 
28 -0.000846204 -0.00208351 -43.5822 -3.30171 -3.29732 -6.6071 0.0102595 -0.0109701 -0.0329716 -3.52635 
29 -0.00100542 -0.00256973 -41.0007 -3.55723 -3.55086 -6.8952 0.0105396 -0.00753025 -0.0315513 -3.52575 
30 -0.00110847 -0.00293303 -38.4209 -3.80761 -3.79915 -7.20366 0.0102771 -0.00434327 -0.0305295 -3.52491 
31 -0.00118238 -0.00319112 -35.8433 -4.05412 -4.04372 -7.52852 0.00959946 -0.00168658 -0.029787 -3.52385 
32 -0.00125343 -0.00335748 -33.2685 -4.2874 -4.27542 -7.85869 0.00862589 0.000147019 -0.0293195 -3.52262 
33 -0.00134517 -0.00344537 -30.6967 -4.49438 -4.48135 -8.17662 0.00750217 0.000962394 -0.0291745 -3.52133 
34 -0.0014748 -0.00346864 -28.1282 -4.66651 -4.65306 -8.4652 0.00638355 0.000752576 -0.0293967 -3.52011 
35 -0.00165011 -0.00344077 -25.5627 -4.80279 -4.78949 -8.71389 0.00539714 -0.000274438 -0.029986 -3.51903 
36 -0.0018686 -0.00337363 -23 -4.90723 -4.89453 -8.9197 0.00461022 -0.00175759 -0.0308815 -3.51811 
37 -0.00211915 -0.0032769 -20.4396 -4.98571 -4.97385 -9.08502 0.00402188 -0.00331501 -0.0319838 -3.51737 
38 -0.00238581 -0.0031584 -17.8812 -5.04397 -5.03304 -9.21486 0.00358113 -0.00467971 -0.03319 -3.51678 
39 -0.00265221 -0.00302481 -15.3242 -5.08691 -5.07684 -9.31495 0.00321937 -0.00577692 -0.0344119 -3.51631 
40 -0.00290543 -0.00288185 -12.7685 -5.11833 -5.10898 -9.39074 0.0028796 -0.00671486 -0.0355694 -3.51596 
41 -0.00313822 -0.0027334 -10.2136 -5.1411 -5.13227 -9.44694 0.00252976 -0.00770034 -0.0365718 -3.5157 
42 -0.00334967 -0.00258 -7.65943 -5.15731 -5.14881 -9.48741 0.0021578 -0.0089175 -0.0373112 -3.51551 
43 -0.00354437 -0.00241766 -5.10571 -5.16839 -5.16004 -9.51512 0.00175519 -0.0104147 -0.0376851 -3.51538 
44 -0.0037305 -0.00223811 -2.55229 -5.17526 -5.16692 -9.53215 0.00129962 -0.0120345 -0.0376392 -3.5153 
45 0.0922791 2.15815 1.27649 -4.05289 -5.13721 -3.83745 -0.0508937 -0.449475 -0.00090935 -3.52908 
46 0.065765 2.1594 3.82965 -4.04832 -5.13694 -3.83124 -0.0395927 -0.449473 -0.0103041 -3.52909 
47 0.0392524 2.16035 6.38296 -4.04474 -5.13448 -3.81669 -0.0282847 -0.448261 -0.0200884 -3.52911 
48 0.0127788 2.16098 8.93658 -4.04265 -5.12959 -3.79262 -0.0168007 -0.445847 -0.0305146 -3.52914 
49 -0.0136141 2.16127 11.4907 -4.04277 -5.12182 -3.75742 -0.00500554 -0.442513 -0.0417726 -3.52917 
50 -0.0398875 2.1612 14.0455 -4.04585 -5.11038 -3.70905 0.00709252 -0.438732 -0.0540483 -3.52922 
51 -0.0660122 2.16076 16.6012 -4.05226 -5.09402 -3.64489 0.0192752 -0.435011 -0.0675889 -3.52927 
52 -0.0919716 2.15994 19.1581 -4.06167 -5.07076 -3.56161 0.0311117 -0.431745 -0.0827226 -3.52934 
53 -0.117763 2.15876 21.7166 -4.07262 -5.03767 -3.45513 0.0420049 -0.429141 -0.0997867 -3.52942 
54 -0.143396 2.15722 24.277 -4.08202 -4.99046 -3.32079 0.0512663 -0.427201 -0.118915 -3.52953 
55 -0.168888 2.15537 26.8399 -4.08419 -4.92315 -3.15421 0.0582221 -0.425758 -0.139634 -3.52967 
56 -0.194257 2.15327 29.4055 -4.06983 -4.82802 -2.95288 0.0623887 -0.42452 -0.160299 -3.52986 
57 -0.219516 2.151 31.9742 -4.02581 -4.69696 -2.71886 0.0637574 -0.423105 -0.177789 -3.53012 
58 -0.24466 2.14866 34.5463 -3.93842 -4.52559 -2.46111 0.06311 -0.421051 -0.188633 -3.53046 
59 -0.269659 2.14629 37.1216 -3.80222 -4.3193 -2.1938 0.0619821 -0.417824 -0.192575 -3.53087 
60 -0.294465 2.14381 39.6996 -3.62556 -4.09276 -1.92836 0.0619197 -0.413009 -0.19468 -3.53128 
61 -0.319051 2.14113 42.2798 -3.42042 -3.85667 -1.66502 0.0636202 -0.406746 -0.20108 -3.53164 
62 -0.343448 2.13816 44.8621 -3.19343 -3.60786 -1.39227 0.0663201 -0.399617 -0.218439 -3.53193 
63 -0.367813 2.13511 47.4464 -2.91509 -3.29629 -1.10677 0.0667094 -0.393945 -0.238779 -3.53223 
64 -0.392512 2.13371 50.032 -2.43251 -2.8015 -0.493737 0.0610038 -0.413263 -0.205428 -3.53324 
65 -0.418483 2.1304 52.6263 -1.76575 -2.00555 -0.561424 0.0455109 -0.308956 -0.729924 -3.52457 
66 -0.44812 2.14653 55.1778 6.97656 7.73842 2.43092 0.0330086 -0.597324 1.77023 -3.02528 
67 0.649859 2.05055 -55.162 1.38942 0.84236 -0.678445 -0.188255 -0.0991983 1.2076 -3.26036 
68 0.633027 2.08274 -52.6122 -1.11195 -2.21869 -0.457715 -0.374488 -0.489288 -0.161398 -3.53566 
69 0.607028 2.08678 -50.0319 -2.00547 -2.55548 -0.875263 -0.169438 -0.430019 0.0761454 -3.53397 
70 0.581237 2.08803 -47.4533 -2.63732 -3.07221 -1.20945 -0.124892 -0.403943 0.147058 -3.5329 
71 0.55637 2.09137 -44.8713 -3.05898 -3.44186 -1.36762 -0.103306 -0.398204 0.191611 -3.53225 
72 0.531708 2.09553 -42.2893 -3.35817 -3.72739 -1.59592 -0.0939719 -0.401949 0.203777 -3.53182 
73 0.506949 2.09995 -39.7087 -3.60206 -3.98328 -1.84612 -0.0922456 -0.407447 0.210103 -3.53141 
74 0.481992 2.10449 -37.13 -3.80452 -4.22114 -2.10933 -0.0962847 -0.412629 0.213909 -3.53097 
75 0.456829 2.10914 -34.5538 -3.96235 -4.43587 -2.37839 -0.104433 -0.417099 0.212903 -3.53055 
76 0.431488 2.11391 -31.9807 -4.07123 -4.61771 -2.64125 -0.114371 -0.421123 0.204402 -3.53018 
77 0.405994 2.11873 -29.4109 -4.13448 -4.76145 -2.88425 -0.123574 -0.424946 0.188412 -3.52988 
78 0.380359 2.12351 -26.8442 -4.16243 -4.86922 -3.09738 -0.130171 -0.428547 0.167525 -3.52965 
79 0.354591 2.12815 -24.2805 -4.16702 -4.9474 -3.27643 -0.133319 -0.431785 0.144802 -3.52949 
80 0.328699 2.13256 -21.7194 -4.15817 -5.0032 -3.42196 -0.132987 -0.434544 0.122499 -3.52937 
81 0.302698 2.1367 -19.1603 -4.14289 -5.04289 -3.53733 -0.129585 -0.436804 0.101855 -3.52928 
82 0.276606 2.14053 -16.6028 -4.12568 -5.07125 -3.62698 -0.123675 -0.438649 0.0833428 -3.52921 
83 0.25044 2.14404 -14.0467 -4.10915 -5.09175 -3.6954 -0.115814 -0.44024 0.066979 -3.52917 
84 0.224214 2.14721 -11.4916 -4.09461 -5.10675 -3.74661 -0.106493 -0.44177 0.0525618 -3.52913 
85 0.197933 2.15005 -8.9372 -4.08247 -5.11781 -3.78398 -0.0961352 -0.443391 0.0398104 -3.52911 
86 0.171598 2.15255 -6.38336 -4.07265 -5.12594 -3.81017 -0.085112 -0.44515 0.0284219 -3.52909 
87 0.145208 2.15473 -3.82989 -4.06475 -5.13172 -3.82711 -0.0737443 -0.446942 0.0180767 -3.52908 
88 0.118766 2.15659 -1.27665 -4.0583 -5.13545 -3.83603 -0.0622865 -0.448507 0.0084255 -3.52907 
89 0.215193 4.3248 -0.000789464 -3.39138 -4.74254 -3.30008 -0.0732946 -0.928701 0.0360833 -3.53365 
90 0.285153 6.49731 1.27497 -2.77293 -4.34468 -2.86324 -0.0784617 -1.35584 0.0483371 -3.53383 
91 2.20497 2.73569 -5.64694e-05 -3.3885 -3.54413 -3.05092 -0.416153 -0.32825 0.24601 -3.52984 
92 2.1713 2.76248 2.55306 -3.37436 -3.55346 -3.04963 -0.415966 -0.334244 0.238128 -3.52984 
93 2.29122 4.92709 1.2753 -2.72469 -3.57077 -2.73014 -0.345669 -0.802496 0.0117037 -3.53336 
94 4.28792 3.33572 1.27703 -3.39934 -2.89806 -2.72676 -0.498163 -0.211967 0.758664 -3.53336 
95 0.162266 4.32735 2.55215 -3.3829 -4.7439 -3.29732 -0.0588318 -0.928996 0.0177875 -3.53366 
96 0.109335 4.32924 5.10517 -3.37716 -4.74511 -3.28827 -0.0440786 -0.927895 -0.000854181 -3.53367 
97 0.205772 6.50048 3.82764 -2.76377 -4.34734 -2.85794 -0.0608056 -1.35507 0.0221946 -3.53383 
98 2.23085 4.95466 3.82833 -2.711 -3.58004 -2.726 -0.336124 -0.804192 -0.00437383 -3.53336 
99 0.126457 6.50261 6.38046 -2.75965 -4.35147 -2.84776 -0.0425166 -1.35324 -0.00456656 -3.53384 
100 4.2468 3.38761 3.83009 -3.38374 -2.91189 -2.72155 -0.504481 -0.226556 0.752208 -3.53336 
101 2.13727 2.78879 5.10628 -3.36118 -3.56413 -3.04165 -0.41428 -0.339653 0.230239 -3.52983 
102 2.10293 2.81462 7.65975 -3.34946 -3.57635 -3.02619 -0.410657 -0.34461 0.222152 -3.52983 
103 2.17016 4.98136 6.38152 -2.70039 -3.59105 -2.71546 -0.324552 -0.805165 -0.0206927 -3.53336 
104 4.205 3.4389 6.38333 -3.36995 -2.92858 -2.71009 -0.508531 -0.240901 0.745493 -3.53336 
105 0.056465 4.33046 7.65841 -3.37539 -4.74625 -3.27228 -0.0288204 -0.925554 -0.02024 -3.53368 
106 0.00372079 4.33098 10.212 -3.37901 -4.74731 -3.2484 -0.0129429 -0.922441 -0.0407478 -3.53369 
107 0.0472942 6.50368 8.93356 -2.76229 -4.3573 -2.83221 -0.0235943 -1.35094 -0.0324713 -3.53383 
108 2.10922 5.00718 8.93502 -2.69403 -3.60388 -2.69773 -0.31066 -0.805795 -0.0376937 -3.53336 
109 -0.0316487 6.50367 11.4871 -2.77311 -4.36497 -2.81053 -0.00421341 -1.34889 -0.062092 -3.53382 
110 4.16256 3.48955 8.93688 -3.35862 -2.94837 -2.69161 -0.509874 -0.255363 0.738314 -3.53336 
111 2.06832 2.83994 10.2136 -3.33991 -3.59018 -3.00199 -0.404641 -0.349415 0.213629 -3.52983 
112 2.03346 2.8647 12.7681 -3.33331 -3.60543 -2.96742 -0.395865 -0.354538 0.204336 -3.52982 
113 2.04807 5.03208 11.489 -2.69312 -3.61844 -2.67169 -0.294288 -0.806656 -0.0559491 -3.53336 
114 4.11952 3.53952 11.4909 -3.3505 -2.97135 -2.6649 -0.508108 -0.270445 0.730392 -3.53336 
115 -0.0488436 4.33078 12.7662 -3.38932 -4.74812 -3.21535 0.00348177 -0.919162 -0.0627926 -3.5337 
116 -0.101191 4.32985 15.3211 -3.40719 -4.74814 -3.17137 0.0201753 -0.916261 -0.0868755 -3.5337 
117 -0.110329 6.50255 14.0412 -2.79295 -4.3744 -2.78159 0.0153047 -1.34768 -0.0940888 -3.53379 
118 1.98675 5.05604 14.0436 -2.69863 -3.63436 -2.63588 -0.275424 -0.808422 -0.0761698 -3.53336 
119 -0.188727 6.50032 16.5962 -2.82205 -4.3852 -2.74366 0.034556 -1.34762 -0.129217 -3.53375 
120 4.0759 3.58877 14.0455 -3.34622 -2.99749 -2.6284 -0.502899 -0.286787 0.721325 -3.53336 
121 1.99838 2.8889 15.3233 -3.33025 -3.62156 -2.92039 -0.384108 -0.360578 0.193822 -3.5298 
122 1.9631 2.91251 17.8795 -3.3309 -3.6376 -2.8583 -0.369277 -0.368185 0.181519 -3.52978 
123 1.92528 5.07901 16.5991 -2.71109 -3.651 -2.5884 -0.254161 -0.811759 -0.0991763 -3.53335 
124 4.03171 3.63729 16.601 -3.34614 -3.02651 -2.58011 -0.493974 -0.30514 0.710556 -3.53335 
125 -0.153304 4.32819 17.8771 -3.43281 -4.74635 -3.114 0.0366927 -0.914066 -0.113586 -3.5337 
126 -0.205178 4.32578 20.4344 -3.46562 -4.74097 -3.03996 0.0524842 -0.912627 -0.143521 -3.53369 
127 -0.266837 6.49697 19.1521 -2.86016 -4.39646 -2.69417 0.0531227 -1.34868 -0.168276 -3.5337 
128 1.86367 5.10099 19.1557 -2.73054 -3.66734 -2.5268 -0.230634 -0.817253 -0.125823 -3.53333 
129 -0.344663 6.4925 21.7094 -2.90644 -4.40648 -2.62959 0.0706229 -1.35052 -0.21196 -3.53363 
130 3.98695 3.68502 19.1576 -3.35021 -3.05781 -2.51759 -0.481107 -0.326295 0.697378 -3.53334 
131 1.92762 2.93551 20.4372 -3.3347 -3.65199 -2.77803 -0.351377 -0.377959 0.166806 -3.52975 
132 1.89194 2.95789 22.9964 -3.34007 -3.66231 -2.67594 -0.330511 -0.390336 0.149136 -3.52972 
133 1.8019 5.12194 21.7137 -2.75635 -3.68175 -2.44803 -0.205006 -0.825353 -0.156857 -3.5333 
134 3.94162 3.73194 21.7156 -3.35773 -3.09026 -2.43794 -0.464133 -0.350989 0.680997 -3.53331 
135 -0.256821 4.32266 22.9932 -3.504 -4.72913 -2.94505 0.0669444 -0.911754 -0.177083 -3.53368 
136 -0.308248 4.31887 25.5542 -3.54464 -4.7063 -2.82436 0.0794326 -0.911107 -0.214087 -3.53369 
137 -0.422207 6.48696 24.2683 -2.9592 -4.41229 -2.54522 0.0867222 -1.35252 -0.260553 -3.53356 
138 1.73998 5.14186 24.2735 -2.78694 -3.6917 -2.34854 -0.177533 -0.836329 -0.192648 -3.53327 
139 -0.499468 6.48042 26.8293 -3.01509 -4.4089 -2.43531 0.101087 -1.35396 -0.31338 -3.5335 
140 3.89572 3.77803 24.2754 -3.367 -3.12181 -2.33789 -0.443064 -0.379705 0.660695 -3.53328 
141 1.85606 2.97967 25.5578 -3.34375 -3.66473 -2.54818 -0.306974 -0.405364 0.128317 -3.52967 
142 1.82001 3.00089 28.1217 -3.33986 -3.65326 -2.39137 -0.281479 -0.422325 0.105013 -3.52961 
143 1.67792 5.1608 26.8355 -2.81904 -3.69319 -2.22462 -0.14876 -0.850106 -0.232707 -3.53322 
144 3.84929 3.82328 26.8373 -3.37474 -3.14879 -2.21402 -0.418327 -0.412286 0.636185 -3.53323 
145 -0.359475 4.31449 28.1175 -3.58132 -4.66568 -2.67294 0.0892867 -0.910307 -0.253134 -3.53372 
146 -0.410519 4.30969 30.6838 -3.60334 -4.59775 -2.48745 0.0959087 -0.90899 -0.290919 -3.5338 
147 -0.576446 6.47305 29.3927 -3.06773 -4.38838 -2.29369 0.113269 -1.35419 -0.368006 -3.53347 
148 1.61575 5.17886 29.4001 -2.84651 -3.68012 -2.07312 -0.119844 -0.865898 -0.274919 -3.53317 
149 -0.65314 6.46512 31.9592 -3.10581 -4.33891 -2.11559 0.122585 -1.35276 -0.419494 -3.53349 
150 3.80241 3.86776 29.4017 -3.37494 -3.16497 -2.06322 -0.391119 -0.447253 0.608232 -3.53317 
151 1.78385 3.02164 30.6886 -3.3188 -3.61916 -2.20398 -0.255481 -0.439171 0.0814763 -3.52957 
152 1.74772 3.04211 33.2586 -3.26706 -3.55127 -1.98813 -0.231337 -0.45227 0.0619338 -3.52955 
153 1.55354 5.19627 31.9677 -2.85869 -3.64348 -1.89249 -0.0928796 -0.881505 -0.314675 -3.53311 
154 3.75527 3.9116 31.9692 -3.35753 -3.16034 -1.8836 -0.363712 -0.480959 0.579513 -3.53311 
155 -0.46138 4.30466 33.2534 -3.59471 -4.49119 -2.26904 0.0990472 -0.906656 -0.322271 -3.53396 
156 -0.512022 4.29963 35.8265 -3.5375 -4.3371 -2.02639 0.0992682 -0.902385 -0.342633 -3.53423 
157 -0.729534 6.45702 34.5292 -3.11156 -4.24506 -1.9013 0.128201 -1.34915 -0.460774 -3.53362 
158 1.49148 5.21337 34.5386 -2.83929 -3.57125 -1.68447 -0.0707942 -0.892653 -0.344955 -3.53308 
159 -0.805559 6.44911 37.1028 -3.0636 -4.09217 -1.66096 0.129807 -1.34206 -0.486157 -3.53388 
160 3.70816 3.95503 34.5399 -3.30724 -3.12095 -1.67633 -0.33927 -0.507513 0.555019 -3.53307 
161 1.71179 3.06249 35.8321 -3.17052 -3.43959 -1.75101 -0.2117 -0.457695 0.0509344 -3.52961 
162 1.67622 3.0829 38.4086 -3.02352 -3.28233 -1.50337 -0.197673 -0.455012 0.0481264 -3.52977 
163 1.42979 5.23055 37.1128 -2.76925 -3.45069 -1.45591 -0.0562469 -0.894042 -0.359787 -3.53313 
164 3.66146 3.99835 37.1141 -3.20587 -3.03251 -1.44802 -0.320575 -0.521462 0.539938 -3.53313 
165 -0.562363 4.29465 38.4027 -3.42273 -4.13784 -1.77464 0.0982377 -0.894977 -0.35351 -3.53458 
166 -0.612309 4.28957 40.9816 -3.25789 -3.90946 -1.52619 0.0981755 -0.883886 -0.363877 -3.53492 
167 -0.881088 6.4415 39.6796 -2.95021 -3.87988 -1.41447 0.128652 -1.32973 -0.498714 -3.53425 
168 1.36871 5.24801 39.6902 -2.63797 -3.27713 -1.21865 -0.0496108 -0.884375 -0.362406 -3.5333 
169 -0.95601 6.43389 42.2588 -2.77977 -3.6283 -1.17955 0.127436 -1.31212 -0.511214 -3.53461 
170 3.61542 4.04169 39.6913 -3.04313 -2.88998 -1.21103 -0.308022 -0.523988 0.532899 -3.53329 
171 1.64102 3.10324 40.9876 -2.83443 -3.08838 -1.25292 -0.187578 -0.449447 0.0455285 -3.53 
172 1.60609 3.12338 43.5688 -2.61323 -2.86587 -0.997336 -0.178894 -0.447538 0.0348317 -3.53027 
173 1.3083 5.26559 42.2698 -2.4519 -3.05973 -0.982792 -0.0480704 -0.870139 -0.367218 -3.53355 
174 3.56997 4.08498 42.2709 -2.82643 -2.70182 -0.97711 -0.299426 -0.524887 0.523051 -3.53354 
175 -0.661841 4.28417 43.5623 -3.05423 -3.66241 -1.2805 0.100233 -0.869949 -0.38213 -3.53523 
176 -0.711127 4.27844 46.1446 -2.82377 -3.39473 -1.01763 0.103597 -0.855317 -0.413708 -3.53549 
177 -1.03039 6.42607 44.8394 -2.55935 -3.34445 -0.962874 0.12753 -1.29153 -0.528916 -3.53496 
178 1.24842 5.28314 44.851 -2.2183 -2.80331 -0.749954 -0.0498894 -0.859807 -0.385741 -3.53386 
179 -1.10458 6.41838 47.4203 -2.29598 -3.01705 -0.776393 0.129767 -1.27251 -0.542052 -3.53528 
180 3.52493 4.12813 44.852 -2.56112 -2.47544 -0.752083 -0.292132 -0.533066 0.50181 -3.53383 
181 1.57125 3.14329 46.1516 -2.36459 -2.61742 -0.719137 -0.171242 -0.456877 0.00764365 -3.53054 
182 1.53633 3.16338 48.7364 -2.08958 -2.36155 -0.347792 -0.183229 -0.479904 -0.0323361 -3.53015 
183 1.1886 5.30066 47.4331 -1.94356 -2.50522 -0.518843 -0.0633777 -0.86614 -0.430871 -3.53412 
184 3.48002 4.17121 47.4338 -2.24098 -2.22057 -0.544032 -0.28618 -0.55928 0.457722 -3.53404 
185 -0.760666 4.2734 48.7285 -2.60302 -3.07463 -0.669959 0.0971253 -0.846662 -0.419528 -3.53516 
186 -0.811621 4.26877 51.3169 -1.9884 -2.35109 0.311842 0.0838964 -0.841937 -0.653069 -3.53805 
187 -1.17889 6.41384 50.0002 -2.05731 -2.54162 -0.333486 0.0867441 -1.27781 -0.619795 -3.53573 
188 1.12775 5.31799 50.0156 -1.56925 -2.07904 -0.0212428 -0.110549 -0.945576 -0.597569 -3.53484 
189 -1.25707 6.40546 52.5877 -1.61243 -2.48693 0.64321 0.175787 -1.31623 -0.613075 -3.53282 
190 3.43505 4.21346 50.0156 -1.75906 -1.85302 -0.0391822 -0.309462 -0.668747 0.311575 -3.5349 
191 1.50027 3.18358 51.3264 -1.43164 -1.70134 0.657912 -0.172631 -0.548528 -0.133052 -3.53273 
192 1.46587 3.20964 53.9052 0.026713 0.954004 -0.795838 0.566313 -0.560971 0.13899 -3.37565 
193 1.06597 5.33731 52.6041 -1.24918 -1.89857 0.441502 -0.236972 -0.801325 -0.410815 -3.52779 
194 3.38747 4.26008 52.6041 -1.41015 -1.71359 0.38984 -0.390668 -0.639443 0.587342 -3.52746 
195 -0.866323 4.2769 53.8949 -0.0508758 -0.206112 -1.18047 0.0793715 -1.26166 1.02744 -3.38132 
196 1.3298 4.1174 -56.3442 5.06942 2.9056 1.60242 -1.25472 -0.273893 0.110262 -2.79034 
197 -1.33605 6.40133 55.1665 4.18009 2.79744 1.28998 0.319927 -1.52319 0.197858 -3.26107 
198 1.00488 5.36129 55.1754 5.64204 6.63185 2.70772 0.369845 -0.636462 -0.0326411 -3.15047 
199 1.98371 6.26223 -55.1334 6.93986 9.11552 2.92911 0.134191 -0.847905 -0.525656 -3.02309 
200 3.34328 4.30996 55.1754 5.53064 7.35763 2.86909 0.11871 -0.278639 0.562621 -3.15115 
201 2.87095 2.09325 -56.362 4.04253 6.00649 1.88099 -3.16453 0.252636 0.341782 -2.79939 
202 2.84551 2.1252 -53.8874 0.164985 0.763276 -3.0265 -0.982117 -0.732817 -0.162366 -3.51266 
203 3.53831 4.21674 -55.1525 6.03165 6.27391 1.75937 0.302437 -1.21951 -0.0444749 -3.1433 
204 5.07312 2.13635 -55.1525 6.04997 7.03886 2.00316 0.446067 -0.528122 0.0805309 -3.14511 
205 1.29262 4.16451 -53.8815 0.861255 -0.348289 -3.67507 -0.408891 -0.573878 0.839002 -3.51412 
206 1.24176 4.17585 -51.3147 -1.28696 -1.9111 -0.376181 -0.214922 -0.88047 0.220624 -3.53903 
207 1.90264 6.26187 -52.5941 -0.917904 -1.45678 -0.573032 -0.184166 -1.16801 0.820117 -3.52792 
208 3.4607 4.22944 -52.6036 -0.748866 -0.925831 0.0954867 -0.677505 -0.496043 0.191393 -3.53019 
209 1.82403 6.27282 -50.0101 -1.64502 -2.32841 -0.267699 -0.199735 -1.28168 0.428675 -3.53672 
210 5.01221 2.17771 -52.6036 -1.34184 -0.348554 0.0546555 -0.502553 0.0192202 0.991514 -3.52952 
211 2.80522 2.14769 -51.32 -1.10363 -0.946822 -0.112661 -0.278124 -0.333051 0.262139 -3.53414 
212 2.77224 2.17449 -48.7405 -1.96969 -1.83785 -0.546138 -0.290959 -0.227087 0.332549 -3.53088 
213 3.40036 4.25787 -50.02 -1.43179 -1.65411 -0.140006 -0.408556 -0.709824 0.283793 -3.53497 
214 4.971 2.23184 -50.02 -1.8438 -1.27418 -0.113753 -0.296499 0.019799 0.833931 -3.53501 
215 1.18963 4.18027 -48.7356 -2.1786 -2.75878 -0.790886 -0.179783 -0.850402 0.275803 -3.5364 
216 1.13965 4.18606 -46.1541 -2.63725 -3.19314 -0.977028 -0.162697 -0.833663 0.395865 -3.53604 
217 1.74856 6.27835 -47.4306 -2.10089 -2.8356 -0.679416 -0.212537 -1.24125 0.539849 -3.53588 
218 3.34499 4.28725 -47.4411 -1.89886 -2.21009 -0.563466 -0.300373 -0.640941 0.331383 -3.53414 
219 1.67459 6.2899 -44.8495 -2.47022 -3.19268 -0.865682 -0.198607 -1.24453 0.599323 -3.53534 
220 4.93478 2.28427 -47.4403 -2.32252 -1.78982 -0.541248 -0.211402 0.103342 0.861773 -3.5342 
221 2.74189 2.20155 -46.1594 -2.36466 -2.26999 -0.738815 -0.230096 -0.163796 0.388332 -3.53074 
222 2.71345 2.23002 -43.5776 -2.67696 -2.59337 -0.949314 -0.213348 -0.15194 0.409019 -3.53037 
223 3.29142 4.31925 -44.8605 -2.2343 -2.57531 -0.718065 -0.259008 -0.626318 0.367231 -3.53392 
224 4.90181 2.33718 -44.8595 -2.65734 -2.14516 -0.722254 -0.176426 0.141272 0.893445 -3.53393 
225 1.09043 4.1944 -43.5722 -2.97617 -3.5131 -1.204 -0.149379 -0.84146 0.421888 -3.53553 
226 1.04114 4.20348 -40.9911 -3.2362 -3.7883 -1.44463 -0.146705 -0.854566 0.428716 -3.53509 
227 1.60081 6.30322 -42.2685 -2.75287 -3.49893 -1.09181 -0.197451 -1.26227 0.615392 -3.53484 
228 3.23879 4.35275 -42.2796 -2.50782 -2.87212 -0.917192 -0.241437 -0.62843 0.385189 -3.5336 
229 1.52658 6.31725 -39.6887 -2.96384 -3.76617 -1.33512 -0.204061 -1.28152 0.619281 -3.53439 
230 4.87038 2.391 -42.2786 -2.94056 -2.42802 -0.92733 -0.165194 0.153261 0.918786 -3.5336 
231 2.68556 2.25925 -40.9965 -2.93306 -2.85525 -1.17884 -0.210255 -0.14984 0.423112 -3.53006 
232 2.65778 2.28911 -38.4168 -3.1467 -3.0705 -1.42057 -0.214797 -0.149113 0.434672 -3.52981 
233 3.18639 4.38734 -39.6996 -2.72527 -3.11248 -1.14035 -0.235663 -0.633354 0.395731 -3.53333 
234 4.83954 2.44582 -39.6986 -3.17749 -2.64641 -1.15061 -0.165452 0.158115 0.940621 -3.53333 
235 0.991452 4.21287 -38.4116 -3.43589 -4.03272 -1.69532 -0.1515 -0.867115 0.429972 -3.53468 
236 0.941336 4.2225 -35.8345 -3.5769 -4.24305 -1.95067 -0.160858 -0.877314 0.424764 -3.53431 
237 1.4517 6.33182 -37.1111 -3.10615 -3.98982 -1.58692 -0.214634 -1.29758 0.614347 -3.53398 
238 3.13397 4.4229 -37.1217 -2.88686 -3.29637 -1.37376 -0.238801 -0.639866 0.398024 -3.53315 
239 1.37624 6.34693 -34.5366 -3.18074 -4.15876 -1.83343 -0.224887 -1.30997 0.59567 -3.53367 
240 4.809 2.50164 -37.1207 -3.36504 -2.80319 -1.38287 -0.17544 0.157747 0.954619 -3.53315 
241 2.62999 2.31956 -35.8395 -3.31684 -3.23953 -1.6667 -0.226389 -0.151135 0.440501 -3.52964 
242 2.60219 2.3505 -33.2651 -3.43894 -3.36023 -1.90688 -0.244816 -0.159223 0.436762 -3.52955 
243 3.08145 4.45932 -34.5466 -2.99043 -3.42249 -1.60378 -0.250157 -0.651186 0.386863 -3.53306 
244 4.77867 2.55833 -34.5455 -3.49793 -2.9004 -1.61208 -0.195285 0.147225 0.955761 -3.53306 
245 0.890855 4.23238 -33.2605 -3.65868 -4.41037 -2.19925 -0.171402 -0.885387 0.409041 -3.53401 
246 0.840081 4.24242 -30.6899 -3.68872 -4.53191 -2.42749 -0.180124 -0.892139 0.381756 -3.5338 
247 1.30032 6.36245 -31.9656 -3.19764 -4.271 -2.05839 -0.231756 -1.31971 0.560941 -3.53349 
248 3.02873 4.49631 -31.9747 -3.04074 -3.49806 -1.8177 -0.268043 -0.668244 0.361107 -3.53307 
249 1.22399 6.37802 -29.3981 -3.17476 -4.33627 -2.25077 -0.234198 -1.32738 0.513722 -3.53342 
250 4.7484 2.61562 -31.9735 -3.5786 -2.94744 -1.82601 -0.223429 0.124158 0.94394 -3.53306 
251 2.57427 2.38177 -30.6939 -3.51445 -3.43685 -2.12982 -0.268305 -0.17399 0.42325 -3.52954 
252 2.54611 2.41312 -28.126 -3.5519 -3.47988 -2.32713 -0.293931 -0.193031 0.403311 -3.52958 
253 2.97563 4.53344 -29.4062 -3.05024 -3.53712 -2.00725 -0.289469 -0.688594 0.32526 -3.53312 
254 4.71789 2.67317 -29.4048 -3.61749 -2.95962 -2.01603 -0.256495 0.0913681 0.923613 -3.53311 
255 0.789054 4.2524 -28.1227 -3.68172 -4.61361 -2.62579 -0.18523 -0.89798 0.346072 -3.53368 
256 0.737788 4.2621 -25.5585 -3.65289 -4.66517 -2.7906 -0.186161 -0.902914 0.306615 -3.53363 
257 1.14728 6.39326 -26.8339 -3.12964 -4.36829 -2.40729 -0.232377 -1.33299 0.46013 -3.53342 
258 2.92199 4.57034 -26.8408 -3.03315 -3.5534 -2.16908 -0.311188 -0.709178 0.285326 -3.53318 
259 1.07021 6.40784 -24.2724 -3.07555 -4.37945 -2.53027 -0.226782 -1.33675 0.405593 -3.53347 
260 4.68684 2.7307 -26.8393 -3.62702 -2.95159 -2.17815 -0.290849 0.0538078 0.899775 -3.53316 
261 2.51755 2.44435 -25.5611 -3.56232 -3.50095 -2.49486 -0.318947 -0.213331 0.380918 -3.52963 
262 2.48852 2.47532 -22.999 -3.55566 -3.50947 -2.63294 -0.341507 -0.232705 0.358929 -3.52968 
263 2.86773 4.60672 -24.2781 -3.00132 -3.55714 -2.30331 -0.330663 -0.72788 0.245842 -3.53323 
264 4.65503 2.78799 -24.2765 -3.61796 -2.9343 -2.31211 -0.323821 0.0158157 0.875994 -3.53321 
265 0.686292 4.27134 -22.9969 -3.61404 -4.6961 -2.92319 -0.183136 -0.90691 0.267201 -3.5336 
266 0.634581 4.28001 -20.4376 -3.573 -4.7139 -3.02733 -0.176735 -0.910077 0.230148 -3.5336 
267 0.992812 6.42155 -21.7131 -3.02106 -4.37896 -2.62468 -0.217959 -1.33914 0.353614 -3.53353 
268 2.81278 4.64241 -21.7177 -2.96322 -3.55507 -2.41211 -0.346436 -0.743727 0.209314 -3.53327 
269 0.915108 6.43426 -19.1556 -2.97102 -4.37295 -2.69603 -0.206496 -1.34076 0.30589 -3.5336 
270 4.62234 2.84493 -21.7161 -3.59833 -2.91482 -2.42003 -0.353924 -0.0198539 0.854263 -3.53325 
271 2.45896 2.50594 -20.439 -3.53939 -3.51193 -2.74379 -0.360712 -0.250024 0.338859 -3.52972 
272 2.42887 2.53615 -17.8809 -3.51862 -3.51231 -2.83098 -0.376352 -0.264964 0.321246 -3.52976 
273 2.75715 4.67732 -19.1593 -2.92424 -3.55124 -2.49858 -0.357999 -0.756596 0.176699 -3.5333 
274 4.5887 2.90144 -19.1576 -3.57366 -2.89723 -2.50526 -0.380581 -0.0519279 0.835415 -3.53329 
275 0.582676 4.28802 -17.8799 -3.53434 -4.72389 -3.10767 -0.167641 -0.912652 0.196479 -3.53361 
276 0.530599 4.29535 -15.3237 -3.50035 -4.72955 -3.16872 -0.156519 -0.914927 0.166368 -3.53362 
277 0.837131 6.4459 -16.5995 -2.92766 -4.36516 -2.74934 -0.193002 -1.34216 0.262862 -3.53366 
278 2.70087 4.7114 -16.6023 -2.88745 -3.54787 -2.56616 -0.365472 -0.766847 0.148019 -3.53332 
279 0.758906 6.45646 -14.0444 -2.89148 -4.35769 -2.78873 -0.178065 -1.34376 0.224255 -3.53371 
280 4.55412 2.95747 -16.6007 -3.5474 -2.88353 -2.57145 -0.40377 -0.0801655 0.819567 -3.53331 
281 2.39827 2.56594 -15.3243 -3.49656 -3.51284 -2.89837 -0.388629 -0.277688 0.306063 -3.52978 
282 2.36717 2.5953 -12.7687 -3.47502 -3.51457 -2.94958 -0.397951 -0.288591 0.293 -3.5298 
283 2.64397 4.74466 -14.0466 -2.85434 -3.54604 -2.61813 -0.369315 -0.775042 0.122826 -3.53334 
284 4.51862 3.01302 -14.0449 -3.52158 -2.87441 -2.62205 -0.42377 -0.104915 0.80644 -3.53333 
285 0.478367 4.30199 -12.7685 -3.47182 -4.73299 -3.2144 -0.143951 -0.917181 0.139525 -3.53363 
286 0.425992 4.30792 -10.2141 -3.44855 -4.73542 -3.24789 -0.13043 -0.919604 0.115464 -3.53363 
287 0.680447 6.46592 -11.4902 -2.86193 -4.35155 -2.81742 -0.162205 -1.3458 0.189466 -3.53374 
288 2.58648 4.77708 -11.4918 -2.82529 -3.54612 -2.65741 -0.370127 -0.781748 0.100487 -3.53335 
289 0.601764 6.4743 -8.93654 -2.83782 -4.34712 -2.83783 -0.145832 -1.3483 0.157782 -3.53377 
290 4.48223 3.06807 -11.4901 -3.4972 -2.86982 -2.66004 -0.440995 -0.126782 0.795579 -3.53334 
291 2.33561 2.62423 -10.2141 -3.45487 -3.51786 -2.9877 -0.404809 -0.298122 0.281653 -3.52981 
292 2.30359 2.65274 -7.66006 -3.43634 -3.52265 -3.01528 -0.409692 -0.306659 0.271614 -3.52982 
293 2.52844 4.80869 -8.93767 -2.80004 -3.54806 -2.68644 -0.368512 -0.787411 0.0803564 -3.53335 
294 4.44498 3.12263 -8.93598 -3.47462 -2.86932 -2.68785 -0.45589 -0.146412 0.786472 -3.53335 
295 0.373478 4.31315 -7.66029 -3.42979 -4.73743 -3.27169 -0.116357 -0.922226 0.0936372 -3.53364 
296 0.320831 4.31771 -5.10689 -3.41456 -4.73928 -3.28762 -0.102038 -0.924877 0.0734921 -3.53364 
297 0.522865 6.48162 -6.38332 -2.81775 -4.34439 -2.85171 -0.129222 -1.35102 0.128488 -3.53379 
298 2.46986 4.8395 -6.38405 -2.77794 -3.55166 -2.70712 -0.364995 -0.792299 0.0618536 -3.53336 
299 0.44377 6.48788 -3.83041 -2.80053 -4.34319 -2.8602 -0.112497 -1.35353 0.100904 -3.5338 
300 4.40689 3.17668 -6.38236 -3.45377 -2.87231 -2.70734 -0.468854 -0.16437 0.77863 -3.53335 
301 2.27114 2.68082 -5.10649 -3.4193 -3.52874 -3.03422 -0.413034 -0.31446 0.262522 -3.52983 
302 2.23826 2.70847 -2.5532 -3.40344 -3.53592 -3.04585 -0.415145 -0.32165 0.254072 -3.52983 
303 2.41077 4.8695 -3.83077 -2.7583 -3.55669 -2.72082 -0.359946 -0.796489 0.0444954 -3.53336 
304 4.368 3.23022 -3.82907 -3.4344 -2.87828 -2.71984 -0.480175 -0.18109 0.771613 -3.53336 
305 0.268062 4.32158 -2.55376 -3.40194 -4.74099 -3.29687 -0.0876662 -0.927191 0.0544844 -3.53365 
306 0.364513 6.49311 -1.27768 -2.78552 -4.34332 -2.86397 -0.0956266 -1.35528 0.0743872 -3.53382 
307 2.35121 4.8987 -1.27769 -2.74059 -3.56304 -2.72838 -0.353526 -0.799921 0.0278891 -3.53336 
308 4.32834 3.28324 -1.27599 -3.41628 -2.88689 -2.72618 -0.489972 -0.19688 0.765055 -3.53336 
309 2.43623 7.09098 -0.00153635 -2.21606 -3.36026 -2.40106 -0.317093 -1.20535 -0.187752 -3.53291 
310 0.434487 8.66815 -0.00180401 -2.24797 -4.01618 -2.49646 -0.099199 -1.74182 0.0831945 -3.53357 