LAMMPS (15 May 2015)
Processor partition = 5
------- This is Cu ---------
Reading restart file ...
  restart file = 15 May 2015, LAMMPS = 15 May 2015
  orthogonal box = (-100 -100 -156.15) to (100 100 156.15)
  1 by 1 by 1 MPI processor grid
  37664 atoms
WARNING: Resetting reneighboring criteria during minimization (../min.cpp:168)
Neighbor list info ...
  1 neighbor list requests
  update every 1 steps, delay 0 steps, check yes
  master list distance cutoff = 6.50679
Setting up minimization ...
Memory usage per processor = 25.009 Mbytes
Step TotEng PotEng KinEng Temp Press sxx syy szz sxy sxz syz 
       0      -129886.968775909947      -129886.968775909947                         0                         0      -107.614850236083754    -0.0893131887414515407    -0.0931851290430790458       1.08913702166501758     0.0031975880458268045   -0.00144443857899088641  -0.000228043525863156498 
     100      -129886.968732974594      -129886.971890834538    0.00315785994987806753     0.0006486543221593744      -107.650940743865604    -0.0892357414189085124    -0.0930101195456218416       1.08918862186991738    0.00298060393431971021    -0.0012272833681997435  -0.000142193339671500195 
     200      -129886.975577501682      -129886.976673774261    0.00109627258164946874   0.000225184764251245802      -107.728884379410133    -0.0891398226926841813    -0.0926140511726506466         1.089353298015169    0.00234284617621819584  -0.000874801301870001356   8.52417259880005842e-05 
     300      -129886.975588686386      -129886.979023046151    0.00343435976168850144   0.000705450000515539912      -107.777251941751643    -0.0891574743702361894    -0.0922935247855508206       1.08945791264315406    0.00186367109692313696  -0.000671558749162701326   0.000307326394157238063 
     400      -129886.978652189355      -129886.980292775101    0.00164058574770616582   0.000336991840364473294      -107.802593911637786    -0.0892287272358012196    -0.0920610308818746448       1.08951017383713222    0.00153838337666381162  -0.000540463872549495797   0.000496804262534831652 
     409      -129886.978651767509      -129886.980423148081    0.00177138057174460709   0.000363858335166399407      -107.804988412249102     -0.089240356093579859    -0.0920339197086292304       1.08951486482418702    0.00150161939098984688  -0.000525456783805268619   0.000520582234752264947 
Loop time of 41.4996 on 1 procs for 409 steps with 37664 atoms

Minimization stats:
  Stopping criterion = force tolerance
  Energy initial, next-to-last, final = 
        -129886.968776     -129886.980409     -129886.980423
  Force two-norm initial, final = 0.0435552 0.00997293
  Force max component initial, final = 0.00523472 0.000213803
  Final line search alpha, max atom move = 0 0
  Iterations, force evaluations = 409 409

Pair  time (%) = 38.7571 (93.3916)
Neigh time (%) = 0.0720952 (0.173725)
Comm  time (%) = 0.00193715 (0.00466788)
Outpt time (%) = 0.0146151 (0.0352173)
Other time (%) = 2.65383 (6.39482)

Nlocal:    37664 ave 37664 max 37664 min
Histogram: 1 0 0 0 0 0 0 0 0 0
Nghost:    0 ave 0 max 0 min
Histogram: 1 0 0 0 0 0 0 0 0 0
Neighs:    1.52298e+06 ave 1.52298e+06 max 1.52298e+06 min
Histogram: 1 0 0 0 0 0 0 0 0 0

Total # of neighbors = 1522985
Ave neighs/atom = 40.4361
Neighbor list builds = 1
Dangerous builds = 0
WARNING: Resetting reneighboring criteria during minimization (../min.cpp:168)
Setting up minimization ...
Memory usage per processor = 25.009 Mbytes
Step TotEng PotEng KinEng Temp Press sxx syy szz sxy sxz syz 
     409      -129886.980423148081      -129886.980423148081                         0                         0      -107.805139872553809    -0.0892400767900355663     -0.092033453090818243       1.08951539493280802    0.00150165966465560488  -0.000525619085705641108   0.000520742726232593521 
Loop time of 5.00679e-06 on 1 procs for 0 steps with 37664 atoms

Minimization stats:
  Stopping criterion = force tolerance
  Energy initial, next-to-last, final = 
        -129886.980423     -129886.980409     -129886.980423
  Force two-norm initial, final = 0.0108711 0.0108711
  Force max component initial, final = 0.000576832 0.000576832
  Final line search alpha, max atom move = 0 0
  Iterations, force evaluations = 0 0

Pair  time (%) = 0 (0)
Neigh time (%) = 0 (0)
Comm  time (%) = 0 (0)
Outpt time (%) = 0 (0)
Other time (%) = 5.00679e-06 (100)

Nlocal:    37664 ave 37664 max 37664 min
Histogram: 1 0 0 0 0 0 0 0 0 0
Nghost:    0 ave 0 max 0 min
Histogram: 1 0 0 0 0 0 0 0 0 0
Neighs:    1.52298e+06 ave 1.52298e+06 max 1.52298e+06 min
Histogram: 1 0 0 0 0 0 0 0 0 0

Total # of neighbors = 1522985
Ave neighs/atom = 40.4361
Neighbor list builds = 0
Dangerous builds = 0
