LAMMPS (15 May 2015)
Processor partition = 7
------- This is Cu ---------
Reading restart file ...
  restart file = 15 May 2015, LAMMPS = 15 May 2015
  orthogonal box = (-100 -100 -156.15) to (100 100 156.15)
  1 by 1 by 1 MPI processor grid
  37664 atoms
WARNING: Resetting reneighboring criteria during minimization (../min.cpp:168)
Neighbor list info ...
  1 neighbor list requests
  update every 1 steps, delay 0 steps, check yes
  master list distance cutoff = 6.50679
Setting up minimization ...
Memory usage per processor = 25.009 Mbytes
Step TotEng PotEng KinEng Temp Press sxx syy szz sxy sxz syz 
       0      -129886.976037488726      -129886.976037488726                         0                         0      -107.630233258691959    -0.0893143680300639148     -0.092796176071861497       1.08887884760225706     0.0027592967658276275  -0.000926741481938577827   0.000856096844151689831 
     100      -129886.975981579133      -129886.979201742521    0.00322016338655723225   0.000661452037741689421      -107.664223272013004    -0.0892326133036485253    -0.0926281037560983539       1.08891538123944165    0.00254979911694486671  -0.000718798763682063969   0.000928540660412707102 
     200      -129886.982961624075      -129886.984064738863     0.0011031147838962824   0.000226590217352690571      -107.738366466557977    -0.0891375306765977843    -0.0922410434676551871       1.08905788343245247    0.00191641766625907798  -0.000378927492335678505    0.00115223520429609343 
     300      -129886.983005939619       -129886.98644244278    0.00343650316305764859   0.000705890275443588327      -107.785237243703392    -0.0891561546225759505    -0.0919244434148993039       1.08915478647615238    0.00143922191336034945  -0.000180487773892842423    0.00137344465163708905 
     400      -129886.986084882839      -129886.987724749939    0.00163986710176942398   0.000336844223687239781      -107.809963256966853    -0.0892278729738320425    -0.0916936488563558499       1.08920402316032905    0.00111480471935439121  -5.12288813987957507e-05    0.00156272700343485058 
     409      -129886.986085794662      -129886.987856321328    0.00177052666023961029   0.000363682933661187255       -107.81230260599439    -0.0892395418682029179    -0.0916666942297051507       1.08920844608691936    0.00107811517615517545   -3.6376451272941716e-05    0.00158650293735868291 
Loop time of 41.4996 on 1 procs for 409 steps with 37664 atoms

Minimization stats:
  Stopping criterion = force tolerance
  Energy initial, next-to-last, final = 
        -129886.976037     -129886.987842     -129886.987856
  Force two-norm initial, final = 0.0437602 0.0099705
  Force max component initial, final = 0.00520187 0.000214151
  Final line search alpha, max atom move = 0 0
  Iterations, force evaluations = 409 409

Pair  time (%) = 39.0407 (94.0748)
Neigh time (%) = 0.07217 (0.173905)
Comm  time (%) = 0.00171471 (0.00413186)
Outpt time (%) = 0.0146415 (0.0352811)
Other time (%) = 2.37039 (5.71183)

Nlocal:    37664 ave 37664 max 37664 min
Histogram: 1 0 0 0 0 0 0 0 0 0
Nghost:    0 ave 0 max 0 min
Histogram: 1 0 0 0 0 0 0 0 0 0
Neighs:    1.52297e+06 ave 1.52297e+06 max 1.52297e+06 min
Histogram: 1 0 0 0 0 0 0 0 0 0

Total # of neighbors = 1522970
Ave neighs/atom = 40.4357
Neighbor list builds = 1
Dangerous builds = 0
WARNING: Resetting reneighboring criteria during minimization (../min.cpp:168)
Setting up minimization ...
Memory usage per processor = 25.009 Mbytes
Step TotEng PotEng KinEng Temp Press sxx syy szz sxy sxz syz 
     409      -129886.987856321328      -129886.987856321328                         0                         0      -107.812453993286169    -0.0892392620079756338     -0.091666223805621741       1.08920897121744931    0.00107815665273812878  -3.65370203132404215e-05    0.00158666279765005405 
Loop time of 5.00679e-06 on 1 procs for 0 steps with 37664 atoms

Minimization stats:
  Stopping criterion = force tolerance
  Energy initial, next-to-last, final = 
        -129886.987856     -129886.987842     -129886.987856
  Force two-norm initial, final = 0.0099705 0.0099705
  Force max component initial, final = 0.000214151 0.000214151
  Final line search alpha, max atom move = 0 0
  Iterations, force evaluations = 0 0

Pair  time (%) = 0 (0)
Neigh time (%) = 0 (0)
Comm  time (%) = 0 (0)
Outpt time (%) = 0 (0)
Other time (%) = 5.00679e-06 (100)

Nlocal:    37664 ave 37664 max 37664 min
Histogram: 1 0 0 0 0 0 0 0 0 0
Nghost:    0 ave 0 max 0 min
Histogram: 1 0 0 0 0 0 0 0 0 0
Neighs:    1.52297e+06 ave 1.52297e+06 max 1.52297e+06 min
Histogram: 1 0 0 0 0 0 0 0 0 0

Total # of neighbors = 1522970
Ave neighs/atom = 40.4357
Neighbor list builds = 0
Dangerous builds = 0
