LAMMPS (15 May 2015)
Processor partition = 3
------- This is Cu ---------
Reading restart file ...
  restart file = 15 May 2015, LAMMPS = 15 May 2015
  orthogonal box = (-100 -100 -156.15) to (100 100 156.15)
  1 by 1 by 1 MPI processor grid
  37664 atoms
WARNING: Resetting reneighboring criteria during minimization (../min.cpp:168)
Neighbor list info ...
  1 neighbor list requests
  update every 1 steps, delay 0 steps, check yes
  master list distance cutoff = 6.50679
Setting up minimization ...
Memory usage per processor = 25.009 Mbytes
Step TotEng PotEng KinEng Temp Press sxx syy szz sxy sxz syz 
       0       -129886.98195223829       -129886.98195223829                         0                         0      -107.595109292402626    -0.0893050565531433443     -0.093549146694395055       1.08932659268766097    0.00360811674297009232    -0.0018985745250902021   -0.00125401989813411319 
     100      -129886.982131062774      -129886.985111163711    0.00298010092993473714   0.000612140937012731678      -107.632131238841623    -0.0892324915491530118    -0.0933750635586772099       1.08939184880151618    0.00339731007425509313   -0.00167781907738397281   -0.00117818829904914259 
     200      -129886.988558562283      -129886.989636852682     0.0010782903949490654   0.000221491052905515049      -107.713091406252403    -0.0891367737937569654    -0.0929758281304396417       1.08957897268333315    0.00275933356707877293   -0.00132833864188624065  -0.000952666260911879791 
     300      -129886.988494193851      -129886.991918596526    0.00342440266928051252   0.000703404719493234986       -107.76238316189891    -0.0891545235619961435    -0.0926539858634992802       1.08969015570982286    0.00228031618777560377   -0.00112377953431908517  -0.000731704652748433118 
     400      -129886.991516661641      -129886.993156270692    0.00163960905422855024   0.000336791218279980701      -107.788134378456874    -0.0892256550194435311     -0.092420817024929991       1.08974506840161212    0.00195498585674972608  -0.000992014854897649246  -0.000542998563657050228 
     409      -129886.991512956301      -129886.993283491494    0.00177053519353617835    0.00036368468648106814      -107.790567037974043    -0.0892372692603763534    -0.0923936379010798919       1.08974999830418362    0.00191821865928163879  -0.000976955553549636304  -0.000519308458498310833 
Loop time of 41.4996 on 1 procs for 409 steps with 37664 atoms

Minimization stats:
  Stopping criterion = force tolerance
  Energy initial, next-to-last, final = 
        -129886.981952     -129886.993269     -129886.993283
  Force two-norm initial, final = 0.0539935 0.00997061
  Force max component initial, final = 0.00847752 0.000213426
  Final line search alpha, max atom move = 0 0
  Iterations, force evaluations = 409 409

Pair  time (%) = 38.667 (93.1744)
Neigh time (%) = 0.0723028 (0.174225)
Comm  time (%) = 0.00159049 (0.00383254)
Outpt time (%) = 0.0144303 (0.0347721)
Other time (%) = 2.74428 (6.61279)

Nlocal:    37664 ave 37664 max 37664 min
Histogram: 1 0 0 0 0 0 0 0 0 0
Nghost:    0 ave 0 max 0 min
Histogram: 1 0 0 0 0 0 0 0 0 0
Neighs:    1.523e+06 ave 1.523e+06 max 1.523e+06 min
Histogram: 1 0 0 0 0 0 0 0 0 0

Total # of neighbors = 1522995
Ave neighs/atom = 40.4364
Neighbor list builds = 1
Dangerous builds = 0
WARNING: Resetting reneighboring criteria during minimization (../min.cpp:168)
Setting up minimization ...
Memory usage per processor = 25.009 Mbytes
Step TotEng PotEng KinEng Temp Press sxx syy szz sxy sxz syz 
     409      -129886.993283491494      -129886.993283491494                         0                         0      -107.790718425995451     -0.089236990517852624    -0.0923931746544205124       1.08975053173600633    0.00191825799509625955  -0.000977119002719390286  -0.000519147668848554092 
Loop time of 5.00679e-06 on 1 procs for 0 steps with 37664 atoms

Minimization stats:
  Stopping criterion = force tolerance
  Energy initial, next-to-last, final = 
        -129886.993283     -129886.993269     -129886.993283
  Force two-norm initial, final = 0.00997061 0.00997061
  Force max component initial, final = 0.000213426 0.000213426
  Final line search alpha, max atom move = 0 0
  Iterations, force evaluations = 0 0

Pair  time (%) = 0 (0)
Neigh time (%) = 0 (0)
Comm  time (%) = 0 (0)
Outpt time (%) = 0 (0)
Other time (%) = 5.00679e-06 (100)

Nlocal:    37664 ave 37664 max 37664 min
Histogram: 1 0 0 0 0 0 0 0 0 0
Nghost:    0 ave 0 max 0 min
Histogram: 1 0 0 0 0 0 0 0 0 0
Neighs:    1.523e+06 ave 1.523e+06 max 1.523e+06 min
Histogram: 1 0 0 0 0 0 0 0 0 0

Total # of neighbors = 1522995
Ave neighs/atom = 40.4364
Neighbor list builds = 0
Dangerous builds = 0
