LAMMPS (15 May 2015)
Processor partition = 4
------- This is Cu ---------
Reading restart file ...
  restart file = 15 May 2015, LAMMPS = 15 May 2015
  orthogonal box = (-100 -100 -156.15) to (100 100 156.15)
  1 by 1 by 1 MPI processor grid
  37664 atoms
WARNING: Resetting reneighboring criteria during minimization (../min.cpp:168)
Neighbor list info ...
  1 neighbor list requests
  update every 1 steps, delay 0 steps, check yes
  master list distance cutoff = 6.50679
Setting up minimization ...
Memory usage per processor = 25.009 Mbytes
Step TotEng PotEng KinEng Temp Press sxx syy szz sxy sxz syz 
       0       -129886.97315259176       -129886.97315259176                         0                         0      -107.609484174155966     -0.089296482886132969    -0.0933389823653011097       1.08922896087842069    0.00343444161490965693   -0.00163055240163655275  -0.000741248034433115012 
     100      -129886.972826622194      -129886.975684346733    0.00285772453328710574   0.000587003666875453734      -107.642183474849389    -0.0892344609521630583    -0.0931949679292497085       1.08929841113067405    0.00318989421659207975   -0.00145627953559805462  -0.000664344502871898291 
     200      -129886.979212097562      -129886.980298102149    0.00108600458656774078   0.000223075620877129021      -107.721782891064208    -0.0891388602273713859    -0.0927982619156564742       1.08947671733639639    0.00255290292569815887   -0.00111080733448272679  -0.000439247552911468161 
     300      -129886.979187609089      -129886.982617039888    0.00342943080460477844   0.000704437546079041393       -107.77063578108006    -0.0891566013273616953    -0.0924769337636765776        1.0895847084335939     0.0020737609919587491  -0.000906723497413178909  -0.000217583722068146899 
     400      -129886.982231787333       -129886.98387195816    0.00164017082136061194   0.000336906610565909344      -107.796197045169336    -0.0892277945210908641    -0.0922440130152503562       1.08963833063121718    0.00174839941397516023   -0.00077518336248371528  -2.83975695774579245e-05 
     409      -129886.982229820991      -129886.984000856522    0.00177103552906901019   0.000363787460135078279      -107.798612019196369    -0.0892394161395593521    -0.0922168593600107556       1.08964314438237109    0.00171162868735874954  -0.000760140017224566252  -4.65446357235227557e-06 
Loop time of 41.4996 on 1 procs for 409 steps with 37664 atoms

Minimization stats:
  Stopping criterion = force tolerance
  Energy initial, next-to-last, final = 
        -129886.973153     -129886.983986     -129886.984001
  Force two-norm initial, final = 0.0281201 0.00997198
  Force max component initial, final = 0.00118717 0.00021361
  Final line search alpha, max atom move = 0 0
  Iterations, force evaluations = 409 409

Pair  time (%) = 38.9843 (93.939)
Neigh time (%) = 0.0723 (0.174218)
Comm  time (%) = 0.00171065 (0.0041221)
Outpt time (%) = 0.0144858 (0.034906)
Other time (%) = 2.42679 (5.84774)

Nlocal:    37664 ave 37664 max 37664 min
Histogram: 1 0 0 0 0 0 0 0 0 0
Nghost:    0 ave 0 max 0 min
Histogram: 1 0 0 0 0 0 0 0 0 0
Neighs:    1.52299e+06 ave 1.52299e+06 max 1.52299e+06 min
Histogram: 1 0 0 0 0 0 0 0 0 0

Total # of neighbors = 1522992
Ave neighs/atom = 40.4363
Neighbor list builds = 1
Dangerous builds = 0
WARNING: Resetting reneighboring criteria during minimization (../min.cpp:168)
Setting up minimization ...
Memory usage per processor = 25.009 Mbytes
Step TotEng PotEng KinEng Temp Press sxx syy szz sxy sxz syz 
     409      -129886.984000856522      -129886.984000856522                         0                         0      -107.798763449998503    -0.0892391371193575061    -0.0922163944711588551       1.08964367625473368    0.00171166847228380122  -0.000760302934347621001  -4.49380293015944242e-06 
Loop time of 3.8147e-06 on 1 procs for 0 steps with 37664 atoms

Minimization stats:
  Stopping criterion = force tolerance
  Energy initial, next-to-last, final = 
        -129886.984001     -129886.983986     -129886.984001
  Force two-norm initial, final = 0.00997198 0.00997198
  Force max component initial, final = 0.00021361 0.00021361
  Final line search alpha, max atom move = 0 0
  Iterations, force evaluations = 0 0

Pair  time (%) = 0 (0)
Neigh time (%) = 0 (0)
Comm  time (%) = 0 (0)
Outpt time (%) = 0 (0)
Other time (%) = 3.8147e-06 (100)

Nlocal:    37664 ave 37664 max 37664 min
Histogram: 1 0 0 0 0 0 0 0 0 0
Nghost:    0 ave 0 max 0 min
Histogram: 1 0 0 0 0 0 0 0 0 0
Neighs:    1.52299e+06 ave 1.52299e+06 max 1.52299e+06 min
Histogram: 1 0 0 0 0 0 0 0 0 0

Total # of neighbors = 1522992
Ave neighs/atom = 40.4363
Neighbor list builds = 0
Dangerous builds = 0
