LAMMPS (15 May 2015)
Processor partition = 1
------- This is Cu ---------
Reading restart file ...
  restart file = 15 May 2015, LAMMPS = 15 May 2015
  orthogonal box = (-100 -100 -156.15) to (100 100 156.15)
  1 by 1 by 1 MPI processor grid
  37664 atoms
WARNING: Resetting reneighboring criteria during minimization (../min.cpp:168)
Neighbor list info ...
  1 neighbor list requests
  update every 1 steps, delay 0 steps, check yes
  master list distance cutoff = 6.50679
Setting up minimization ...
Memory usage per processor = 25.009 Mbytes
Step TotEng PotEng KinEng Temp Press sxx syy szz sxy sxz syz 
       0      -129887.019991676279      -129887.019991676279                         0                         0      -107.569607525294657     -0.089296509217084985    -0.0938750733934175935       1.08942912355130916     0.0039982673546957977   -0.00227010754222624735   -0.00222903196165536019 
     100      -129887.019958371762      -129887.023113511474    0.00315513970972834462   0.000648095559086142624      -107.608021686905985    -0.0892301778335152646    -0.0936983215029168204         1.089509673731337     0.0037909245818643399   -0.00204353472834497467   -0.00214953530335959932 
     200      -129887.026529989947      -129887.027598020417    0.00106803046549757297   0.000219383566288188078      -107.691417760253799    -0.0891339270109242909    -0.0932954063601469513        1.0897131069675221    0.00315152169725422442   -0.00168288431824000048   -0.00192529930730145739 
     300      -129887.026437190085      -129887.029852731517    0.00341554142596191745   0.000701584536245863791       -107.74144952903427    -0.0891513752026374673    -0.0929731956543529692       1.08982985447645375    0.00267302706090343737   -0.00147817836489690991   -0.00170668487131772476 
     400      -129887.029448037792      -129887.031086172894     0.0016381350981328484   0.000336488453747251165      -107.767493473886404    -0.0892223217888413606    -0.0927399410216298153       1.08988696269407237    0.00234802612696315702   -0.00134644105178389822   -0.00151946786882720076 
     409      -129887.029443844964      -129887.031213009323    0.00176916436533397416   0.000363403105393745967      -107.769953023761545    -0.0892339162903447308    -0.0927127503999262137       1.08989208790654524     0.0023112920260944074   -0.00133139266756600121   -0.00149593316002972522 
Loop time of 41.4996 on 1 procs for 409 steps with 37664 atoms

Minimization stats:
  Stopping criterion = force tolerance
  Energy initial, next-to-last, final = 
        -129887.019992     -129887.031199     -129887.031213
  Force two-norm initial, final = 0.0498852 0.00996681
  Force max component initial, final = 0.00809085 0.000213087
  Final line search alpha, max atom move = 0 0
  Iterations, force evaluations = 409 409

Pair  time (%) = 38.7498 (93.3739)
Neigh time (%) = 0.0723019 (0.174223)
Comm  time (%) = 0.00173473 (0.00418012)
Outpt time (%) = 0.0147491 (0.0355402)
Other time (%) = 2.66103 (6.41219)

Nlocal:    37664 ave 37664 max 37664 min
Histogram: 1 0 0 0 0 0 0 0 0 0
Nghost:    0 ave 0 max 0 min
Histogram: 1 0 0 0 0 0 0 0 0 0
Neighs:    1.52299e+06 ave 1.52299e+06 max 1.52299e+06 min
Histogram: 1 0 0 0 0 0 0 0 0 0

Total # of neighbors = 1522994
Ave neighs/atom = 40.4363
Neighbor list builds = 1
Dangerous builds = 0
WARNING: Resetting reneighboring criteria during minimization (../min.cpp:168)
Setting up minimization ...
Memory usage per processor = 25.009 Mbytes
Step TotEng PotEng KinEng Temp Press sxx syy szz sxy sxz syz 
     409      -129887.031213009323      -129887.031213009323                         0                         0      -107.770104294571496    -0.0892336380906598864    -0.0927122901973698316       1.08989262393779995     0.0023113305782017585   -0.00133155696395347717   -0.00149577222275809065 
Loop time of 5.96046e-06 on 1 procs for 0 steps with 37664 atoms

Minimization stats:
  Stopping criterion = force tolerance
  Energy initial, next-to-last, final = 
        -129887.031213     -129887.031199     -129887.031213
  Force two-norm initial, final = 0.00996681 0.00996681
  Force max component initial, final = 0.000213087 0.000213087
  Final line search alpha, max atom move = 0 0
  Iterations, force evaluations = 0 0

Pair  time (%) = 0 (0)
Neigh time (%) = 0 (0)
Comm  time (%) = 0 (0)
Outpt time (%) = 0 (0)
Other time (%) = 5.96046e-06 (100)

Nlocal:    37664 ave 37664 max 37664 min
Histogram: 1 0 0 0 0 0 0 0 0 0
Nghost:    0 ave 0 max 0 min
Histogram: 1 0 0 0 0 0 0 0 0 0
Neighs:    1.52299e+06 ave 1.52299e+06 max 1.52299e+06 min
Histogram: 1 0 0 0 0 0 0 0 0 0

Total # of neighbors = 1522994
Ave neighs/atom = 40.4363
Neighbor list builds = 0
Dangerous builds = 0
