LAMMPS (15 May 2015)
Processor partition = 8
------- This is Cu ---------
Reading restart file ...
  restart file = 15 May 2015, LAMMPS = 15 May 2015
  orthogonal box = (-100 -100 -156.15) to (100 100 156.15)
  1 by 1 by 1 MPI processor grid
  37664 atoms
WARNING: Resetting reneighboring criteria during minimization (../min.cpp:168)
Neighbor list info ...
  1 neighbor list requests
  update every 1 steps, delay 0 steps, check yes
  master list distance cutoff = 6.50679
Setting up minimization ...
Memory usage per processor = 25.009 Mbytes
Step TotEng PotEng KinEng Temp Press sxx syy szz sxy sxz syz 
       0      -129886.986587577485      -129886.986587577485                         0                         0      -107.639676948718602    -0.0892899045240109351    -0.0925679680109773861       1.08870573768380696    0.00256584220191478137  -0.000603468271630325237    0.00140955779988278336 
     100         -129886.986194546      -129886.989222986551    0.00302844055227168745   0.000622070352964704297      -107.668531204761223    -0.0892275678020615359    -0.0924337413031963429       1.08875226696146443    0.00233123097961168528  -0.000443668502687921381    0.00147294538387531936 
     200      -129886.992884202904      -129886.993987646507    0.00110344360785044593    0.00022665776090512261      -107.740908251356345    -0.0891337511469923044    -0.0920531858557153415       1.08888766044028285    0.00170158693470823285  -0.000118117932517472767    0.00169268047218009993 
     300       -129886.99290961276      -129886.996346569591      0.003436956829185205   0.000705983462760039144      -107.786909545095952    -0.0891531513340416137    -0.0917391824052035398       1.08898061106216737    0.00122590798999521779   7.70595094313250817e-05    0.00191288291985380605 
     400      -129886.995978108185      -129886.997617446163    0.00163933797286211643   0.000336735535601589292       -107.81128344789326    -0.0892251833222900276     -0.091509488929466129       1.08902829598913953   0.000902115888052098321   0.000205092172759978802    0.00210180571192599601 
     409      -129886.995977942512      -129886.997747856891    0.00176991437186838269   0.000363557163834561453      -107.813591446558505    -0.0892368784528502212    -0.0914826350475369393       1.08903258177462892   0.000865480388731942538   0.000219839186272946063     0.0021255562992774763 
Loop time of 41.4996 on 1 procs for 409 steps with 37664 atoms

Minimization stats:
  Stopping criterion = force tolerance
  Energy initial, next-to-last, final = 
        -129886.986588     -129886.997733     -129886.997748
  Force two-norm initial, final = 0.0287152 0.00996876
  Force max component initial, final = 0.00147147 0.000214335
  Final line search alpha, max atom move = 0 0
  Iterations, force evaluations = 409 409

Pair  time (%) = 39.0937 (94.2025)
Neigh time (%) = 0.0725901 (0.174918)
Comm  time (%) = 0.00173593 (0.004183)
Outpt time (%) = 0.0145564 (0.035076)
Other time (%) = 2.31704 (5.58328)

Nlocal:    37664 ave 37664 max 37664 min
Histogram: 1 0 0 0 0 0 0 0 0 0
Nghost:    0 ave 0 max 0 min
Histogram: 1 0 0 0 0 0 0 0 0 0
Neighs:    1.52296e+06 ave 1.52296e+06 max 1.52296e+06 min
Histogram: 1 0 0 0 0 0 0 0 0 0

Total # of neighbors = 1522962
Ave neighs/atom = 40.4355
Neighbor list builds = 1
Dangerous builds = 0
WARNING: Resetting reneighboring criteria during minimization (../min.cpp:168)
Setting up minimization ...
Memory usage per processor = 25.009 Mbytes
Step TotEng PotEng KinEng Temp Press sxx syy szz sxy sxz syz 
     409      -129886.997747856891      -129886.997747856891                         0                         0      -107.813742781497098    -0.0892365982902591365    -0.0914821625851955783       1.08903310412347798    0.00086552252773888479   0.000219679589270133335    0.00212571578214349561 
Loop time of 5.96046e-06 on 1 procs for 0 steps with 37664 atoms

Minimization stats:
  Stopping criterion = force tolerance
  Energy initial, next-to-last, final = 
        -129886.997748     -129886.997733     -129886.997748
  Force two-norm initial, final = 0.00996876 0.00996876
  Force max component initial, final = 0.000214335 0.000214335
  Final line search alpha, max atom move = 0 0
  Iterations, force evaluations = 0 0

Pair  time (%) = 0 (0)
Neigh time (%) = 0 (0)
Comm  time (%) = 0 (0)
Outpt time (%) = 0 (0)
Other time (%) = 5.96046e-06 (100)

Nlocal:    37664 ave 37664 max 37664 min
Histogram: 1 0 0 0 0 0 0 0 0 0
Nghost:    0 ave 0 max 0 min
Histogram: 1 0 0 0 0 0 0 0 0 0
Neighs:    1.52296e+06 ave 1.52296e+06 max 1.52296e+06 min
Histogram: 1 0 0 0 0 0 0 0 0 0

Total # of neighbors = 1522962
Ave neighs/atom = 40.4355
Neighbor list builds = 0
Dangerous builds = 0
